chemcompute.org
{'UTCtimestamp': '2022-10-04T21:16:42.845161', 'cluster': 'jetstream2', 'clusterJobNumber': '120801', 'status': 'RUNNING', 'nodeList': 'chemcompute-node-0'}
----- GAMESS execution script 'rungms' -----
This job is running on host chemcompute-node-0.novalocal
under operating system Linux at Tue Oct 4 21:16:46 UTC 2022
SLURM has assigned the following compute nodes to this run:
Available scratch disk space (Kbyte units) at beginning of the job is
Filesystem     1K-blocks     Used Available Use% Mounted on
/dev/sda1       62903276 11846376  51056900  19% /
GAMESS temporary binary files will be written to /scratch/120801
GAMESS supplementary output files will be written to /data/slurm/46/460758
Copying input file 460758.inp to your run's scratch directory...
The generated host list is
chemcompute-node-0.novalocal

 Distributed Data Interface kickoff program.
 Initiating 1 compute processes on 1 nodes to run the following command:
 /data/gamess-2019R1-avx2-ddi/gamess.00.x 460758 

          ******************************************************
          *         GAMESS VERSION = 30 JUN 2019 (R1)          *
          *             FROM IOWA STATE UNIVERSITY             *
          * M.W.SCHMIDT, K.K.BALDRIDGE, J.A.BOATZ, S.T.ELBERT, *
          *   M.S.GORDON, J.H.JENSEN, S.KOSEKI, N.MATSUNAGA,   *
          *          K.A.NGUYEN, S.J.SU, T.L.WINDUS,           *
          *       TOGETHER WITH M.DUPUIS, J.A.MONTGOMERY       *
          *         J.COMPUT.CHEM.  14, 1347-1363(1993)        *
          **************** 64 BIT INTEL VERSION ****************

  SINCE 1993, STUDENTS AND POSTDOCS WORKING AT IOWA STATE UNIVERSITY
  AND ALSO IN THEIR VARIOUS JOBS AFTER LEAVING ISU HAVE MADE IMPORTANT
  CONTRIBUTIONS TO THE CODE:
     IVANA ADAMOVIC, CHRISTINE AIKENS, YURI ALEXEEV, POOJA ARORA,
     ANDREY ASADCHEV, ROB BELL, PRADIPTA BANDYOPADHYAY, JONATHAN BENTZ,
     COLLEEN BERTONI, BRETT BODE, KURT BRORSEN, CALEB CARLIN, GALINA CHABAN,
     WEI CHEN, CHEOL HO CHOI, PAUL DAY, ALBERT DEFUSCO, NUWAN DESILVA,
     TIM DUDLEY, DMITRI FEDOROV, ALEX FINDLATER, GRAHAM FLETCHER, 
     MARK FREITAG, KURT GLAESEMANN, ANASTASIA GUNINA,
     DAN KEMP, GRANT MERRILL, NORIYUKI MINEZAWA, JONATHAN MULLIN,
     TAKESHI NAGATA, SEAN NEDD, HEATHER NETZLOFF, BOSILJKA NJEGIC, RYAN OLSON,
     MIKE PAK, BUU PHAM,
     SPENCER PRUITT, LUKE ROSKOP, JIM SHOEMAKER, LYUDMILA SLIPCHENKO,
     TONY SMITH, SAROM SOK LEANG, JIE SONG, TETSUYA TAKETSUGU, SIMON WEBB,
     PENG XU, SOOHAENG YOO, FEDERICO ZAHARIEV

  ADDITIONAL CODE HAS BEEN PROVIDED BY COLLABORATORS IN OTHER GROUPS:
     IOWA STATE UNIVERSITY:
          JOE IVANIC, AARON WEST, LAIMUTIS BYTAUTAS, KLAUS RUEDENBERG
     UNIVERSITY OF TOKYO: KIMIHIKO HIRAO, TAKAHITO NAKAJIMA,
          TAKAO TSUNEDA, MUNEAKI KAMIYA, SUSUMU YANAGISAWA,
          KIYOSHI YAGI, MAHITO CHIBA, SEIKEN TOKURA, NAOAKI KAWAKAMI
     UNIVERSITY OF AARHUS: FRANK JENSEN
     UNIVERSITY OF IOWA: VISVALDAS KAIRYS, HUI LI
     NATIONAL INST. OF STANDARDS AND TECHNOLOGY: WALT STEVENS, DAVID GARMER
     UNIVERSITY OF PISA: BENEDETTA MENNUCCI, JACOPO TOMASI
     UNIVERSITY OF MEMPHIS: HENRY KURTZ, PRAKASHAN KORAMBATH
     UNIVERSITY OF ALBERTA: TOBY ZENG, MARIUSZ KLOBUKOWSKI
     UNIVERSITY OF NEW ENGLAND: MARK SPACKMAN
     MIE UNIVERSITY: HIROAKI UMEDA
     NAT. INST. OF ADVANCED INDUSTRIAL SCIENCE AND TECHNOLOGY: KAZUO KITAURA
     MICHIGAN STATE UNIVERSITY:
          KAROL KOWALSKI, MARTA WLOCH, JEFFREY GOUR, JESSE LUTZ,
          WEI LI, JUN SHEN, J. EMILIANO DEUSTUA, PIOTR PIECUCH
     UNIVERSITY OF MINNESOTA:
          YINAN SHU
     UNIVERSITY OF SILESIA: MONIKA MUSIAL, STANISLAW KUCHARSKI
     FACULTES UNIVERSITAIRES NOTRE-DAME DE LA PAIX:
          OLIVIER QUINET, BENOIT CHAMPAGNE
     UNIVERSITY OF CALIFORNIA - SANTA BARBARA: BERNARD KIRTMAN
     INSTITUTE FOR MOLECULAR SCIENCE:
          KAZUYA ISHIMURA, MICHIO KATOUDA, AND SHIGERU NAGASE
     UNIVERSITY OF NOTRE DAME: ANNA POMOGAEVA, DAN CHIPMAN
     KYUSHU UNIVERSITY:
          HARUYUKI NAKANO,
          FENG LONG GU, JACEK KORCHOWIEC, MARCIN MAKOWSKI, AND YURIKO AOKI,
          HIROTOSHI MORI AND EISAKU MIYOSHI
     PENNSYLVANIA STATE UNIVERSITY:
          TZVETELIN IORDANOV, CHET SWALINA, JONATHAN SKONE,
          SHARON HAMMES-SCHIFFER
     WASEDA UNIVERSITY:
          MASATO KOBAYASHI, TOMOKO AKAMA, TSUGUKI TOUMA,
          TAKESHI YOSHIKAWA, YASUHIRO IKABATA, JUNJI SEINO,
          YUYA NAKAJIMA, HIROMI NAKAI
     NANJING UNIVERSITY: SHUHUA LI
     UNIVERSITY OF NEBRASKA:
          PEIFENG SU, DEJUN SI, NANDUN THELLAMUREGE, YALI WANG, HUI LI
     UNIVERSITY OF ZURICH: ROBERTO PEVERATI, KIM BALDRIDGE
     N. COPERNICUS UNIVERSITY AND JACKSON STATE UNIVERSITY:
          MARIA BARYSZ
     UNIVERSITY OF COPENHAGEN: Jimmy Kromann, CASPER STEINMANN
     TOKYO INSTITUTE OF TECHNOLOGY: HIROYA NAKATA
     NAGOYA UNIVERSITY: YOSHIO NISHIMOTO, STEPHAN IRLE
     MOSCOW STATE UNIVERSITY: VLADIMIR MIRONOV
     A.N.NESMEYANOV INSTITUTE OF ORGANOELEMENT COMPOUNDS OF RUSSIAN ACADEMY OF SCIENCES:
          IGOR S. GERASIMOV

 EXECUTION OF GAMESS BEGUN Tue Oct  4 21:16:46 2022

            ECHO OF THE FIRST FEW INPUT CARDS -
 INPUT CARD>!                                                                               
 INPUT CARD>!   GAMESS Calculation input file                                               
 INPUT CARD>!   molecula 2 de prueba                                                        
 INPUT CARD>!                                                                               
 INPUT CARD> $CONTRL SCFTYP=RHF MAXIT=200 RUNTYP=OPTIMIZE                                   
 INPUT CARD>         COORD=UNIQUE MULT=1                                                    
 INPUT CARD>         ICHARG=0                                                               
 INPUT CARD>         DFTTYP=B3LYP                                                           
 INPUT CARD>         MOLPLT=.FALSE. PLTORB=.FALSE.  $END                                    
 INPUT CARD> $SYSTEM TIMLIM=2879 MWORDS=250  $END                                           
 INPUT CARD>                                                                                
 INPUT CARD> $FORCE METHOD=SEMINUM NVIB=2 $END                                              
 INPUT CARD> $STATPT OPTTOL=0.0005 NSTEP=999 $END                                           
 INPUT CARD> $STATPT IHREP=0 HSSEND=.TRUE.  $END                                            
 INPUT CARD>                                                                                
 INPUT CARD> $DFT    METHOD=GRID  NLEB=590  $END                                            
 INPUT CARD>                                                                                
 INPUT CARD> $BASIS  GBASIS=N31 NGAUSS=6                                                    
 INPUT CARD>         NDFUNC=1   NPFUNC=0  $END                                              
 INPUT CARD>                                                                                
 INPUT CARD> $SCF    DIRSCF=.T. $END                                                        
 INPUT CARD> $GUESS  GUESS=HUCKEL  $END                                                     
 INPUT CARD>                                                                                
 INPUT CARD> $DATA                                                                          
 INPUT CARD>   molecula 2 de prueba                                                         
 INPUT CARD>  C1                                                                            
 INPUT CARD>C     6.0    -0.87933     0.02952     0.16325                                   
 INPUT CARD>O     8.0    -0.80095     1.24193     0.04908                                   
 INPUT CARD>C     6.0     0.23561    -0.90479    -0.13730                                   
 INPUT CARD>C     6.0     1.52094    -0.51887    -0.08982                                   
 INPUT CARD>H     1.0    -1.80770    -0.46495     0.50012                                   
 INPUT CARD>H     1.0    -0.03994    -1.92100    -0.37882                                   
 INPUT CARD>H     1.0     1.79901     0.49599     0.17034                                   
 INPUT CARD>H     1.0     2.31538    -1.22052    -0.31016                                   
 INPUT CARD> $END                                                                           
 INPUT CARD>                                                                                
 INPUT CARD>                                                                                
 INPUT CARD>! Customizations after this line are persisted when using Do More Calculations  
  250000000 WORDS OF MEMORY AVAILABLE

     BASIS OPTIONS
     -------------
     GBASIS=N31          IGAUSS=       6      POLAR=POPN31  
     NDFUNC=       1     NFFUNC=       0     DIFFSP=       F
     NPFUNC=       0      DIFFS=       F     BASNAM=        


     RUN TITLE
     ---------
    molecula 2 de prueba                                                         

 THE POINT GROUP OF THE MOLECULE IS C1      
 THE ORDER OF THE PRINCIPAL AXIS IS     0

 ATOM      ATOMIC                      COORDINATES (BOHR)
           CHARGE         X                   Y                   Z
 C           6.0    -1.6616927528        0.0557847112        0.3084977675
 O           8.0    -1.5135760299        2.3469073959        0.0927477515
 C           6.0     0.4452383400       -1.7098051764       -0.2594593781
 C           6.0     2.8741598438       -0.9805221232       -0.1697351882
 H           1.0    -3.4160576680       -0.8786280980        0.9450897610
 H           1.0    -0.0754756559       -3.6301636224       -0.7158659987
 H           1.0     3.3996359492        0.9372851927        0.3218959247
 H           1.0     4.3754337575       -2.3064483625       -0.5861174124

          INTERNUCLEAR DISTANCES (ANGS.)
          ------------------------------

                1 C          2 O          3 C          4 C          5 H     

   1 C       0.0000000    1.2202935 *  1.4853810 *  2.4750903 *  1.1044695 *
   2 O       1.2202935 *  0.0000000    2.3911505 *  2.9173418 *  2.0323440 *
   3 C       1.4853810 *  2.3911505 *  0.0000000    1.3428558 *  2.1851497 *
   4 C       2.4750903 *  2.9173418 *  1.3428558 *  0.0000000    3.3809438  
   5 H       1.1044695 *  2.0323440 *  2.1851497 *  3.3809438    0.0000000  
   6 H       2.1915619 *  3.2812133    1.0802511 *  2.1179792 *  2.4530782 *
   7 H       2.7186669 *  2.7075676 *  2.1215670 *  1.0839497 *  3.7470679  
   8 H       3.4630751    3.9880103    2.1106893 *  1.0825883 *  4.2693358  

                6 H          7 H          8 H     

   1 C       2.1915619 *  2.7186669 *  3.4630751  
   2 O       3.2812133    2.7075676 *  3.9880103  
   3 C       1.0802511 *  2.1215670 *  2.1106893 *
   4 C       2.1179792 *  1.0839497 *  1.0825883 *
   5 H       2.4530782 *  3.7470679    4.2693358  
   6 H       0.0000000    3.0862849    2.4582349 *
   7 H       3.0862849    0.0000000    1.8557815 *
   8 H       2.4582349 *  1.8557815 *  0.0000000  

  * ... LESS THAN  3.000


     ATOMIC BASIS SET
     ----------------
 THE CONTRACTED PRIMITIVE FUNCTIONS HAVE BEEN UNNORMALIZED
 THE CONTRACTED BASIS FUNCTIONS ARE NOW NORMALIZED TO UNITY

  SHELL TYPE  PRIMITIVE        EXPONENT          CONTRACTION COEFFICIENT(S)

 C         

      1   S       1          3047.5248800    0.001834737132
      1   S       2           457.3695180    0.014037322813
      1   S       3           103.9486850    0.068842622264
      1   S       4            29.2101553    0.232184443216
      1   S       5             9.2866630    0.467941348435
      1   S       6             3.1639270    0.362311985337

      2   L       7             7.8682723   -0.119332419775    0.068999066591
      2   L       8             1.8812885   -0.160854151696    0.316423960957
      2   L       9             0.5442493    1.143456437840    0.744308290898

      3   L      10             0.1687145    1.000000000000    1.000000000000

      4   D      11             0.8000000    1.000000000000

 O         

      5   S      12          5484.6716600    0.001831074430
      5   S      13           825.2349460    0.013950172200
      5   S      14           188.0469580    0.068445078098
      5   S      15            52.9645000    0.232714335992
      5   S      16            16.8975704    0.470192897984
      5   S      17             5.7996353    0.358520852987

      6   L      18            15.5396162   -0.110777549525    0.070874268231
      6   L      19             3.5999336   -0.148026262701    0.339752839147
      6   L      20             1.0137618    1.130767015354    0.727158577316

      7   L      21             0.2700058    1.000000000000    1.000000000000

      8   D      22             0.8000000    1.000000000000

 C         

      9   S      23          3047.5248800    0.001834737132
      9   S      24           457.3695180    0.014037322813
      9   S      25           103.9486850    0.068842622264
      9   S      26            29.2101553    0.232184443216
      9   S      27             9.2866630    0.467941348435
      9   S      28             3.1639270    0.362311985337

     10   L      29             7.8682723   -0.119332419775    0.068999066591
     10   L      30             1.8812885   -0.160854151696    0.316423960957
     10   L      31             0.5442493    1.143456437840    0.744308290898

     11   L      32             0.1687145    1.000000000000    1.000000000000

     12   D      33             0.8000000    1.000000000000

 C         

     13   S      34          3047.5248800    0.001834737132
     13   S      35           457.3695180    0.014037322813
     13   S      36           103.9486850    0.068842622264
     13   S      37            29.2101553    0.232184443216
     13   S      38             9.2866630    0.467941348435
     13   S      39             3.1639270    0.362311985337

     14   L      40             7.8682723   -0.119332419775    0.068999066591
     14   L      41             1.8812885   -0.160854151696    0.316423960957
     14   L      42             0.5442493    1.143456437840    0.744308290898

     15   L      43             0.1687145    1.000000000000    1.000000000000

     16   D      44             0.8000000    1.000000000000

 H         

     17   S      45            18.7311370    0.033494604338
     17   S      46             2.8253944    0.234726953484
     17   S      47             0.6401217    0.813757326146

     18   S      48             0.1612778    1.000000000000

 H         

     19   S      49            18.7311370    0.033494604338
     19   S      50             2.8253944    0.234726953484
     19   S      51             0.6401217    0.813757326146

     20   S      52             0.1612778    1.000000000000

 H         

     21   S      53            18.7311370    0.033494604338
     21   S      54             2.8253944    0.234726953484
     21   S      55             0.6401217    0.813757326146

     22   S      56             0.1612778    1.000000000000

 H         

     23   S      57            18.7311370    0.033494604338
     23   S      58             2.8253944    0.234726953484
     23   S      59             0.6401217    0.813757326146

     24   S      60             0.1612778    1.000000000000

 TOTAL NUMBER OF BASIS SET SHELLS             =   24
 NUMBER OF CARTESIAN GAUSSIAN BASIS FUNCTIONS =   68
 NUMBER OF ELECTRONS                          =   30
 CHARGE OF MOLECULE                           =    0
 SPIN MULTIPLICITY                            =    1
 NUMBER OF OCCUPIED ORBITALS (ALPHA)          =   15
 NUMBER OF OCCUPIED ORBITALS (BETA )          =   15
 TOTAL NUMBER OF ATOMS                        =    8
 THE NUCLEAR REPULSION ENERGY IS      104.1056450302

 SELECTED MURRAY-HANDY-LAMING RADIAL GRID

 LEGACY BECKE'S FUZZY CELL METHOD

 SELECTED ORIGINAL BECKE'S PARTITION FUNCTION

     LEBEDEV GRID-BASED DFT OPTIONS
     ------------------------------
     DFTTYP=B3LYP   
     NRAD  =      96     NLEB  =     590
     NRAD0 =      24     NLEB0 =     110
     SWOFF =    5.00E-03 (PURE SCF -> DFT)
     SWITCH=    3.00E-04 (COARSE -> TIGHT GRID)
     THRESH=    0.00E+00 GTHRE=    1.00E+00

 GRIMME'S EMPIRICAL DISPERSION CORRECTION= F

     $CONTRL OPTIONS
     ---------------
 SCFTYP=RHF          RUNTYP=OPTIMIZE     EXETYP=RUN     
 MPLEVL=       0     CITYP =NONE         CCTYP =NONE         VBTYP =NONE    
 DFTTYP=B3LYP        TDDFT =NONE    
 MULT  =       1     ICHARG=       0     NZVAR =       0     COORD =UNIQUE  
 PP    =NONE         RELWFN=NONE         LOCAL =NONE         NUMGRD=       F
 ISPHER=      -1     NOSYM =       0     MAXIT =     200     UNITS =ANGS    
 PLTORB=       F     MOLPLT=       F     AIMPAC=       F     FRIEND=        
 NPRINT=       7     IREST =       0     GEOM  =INPUT   
 NORMF =       0     NORMP =       0     ITOL  =      20     ICUT  =       9
 INTTYP=BEST         GRDTYP=BEST         QMTTOL= 1.0E-06

     $SYSTEM OPTIONS
     ---------------
  REPLICATED MEMORY=   250000000 WORDS (ON EVERY NODE).
 DISTRIBUTED MEMDDI=           0 MILLION WORDS IN AGGREGATE,
 MEMDDI DISTRIBUTED OVER   1 PROCESSORS IS           0 WORDS/PROCESSOR.
 TOTAL MEMORY REQUESTED ON EACH PROCESSOR=   250000000 WORDS.
 TIMLIM=        2879.00 MINUTES, OR       2.0 DAYS.
 PARALL= F  BALTYP=  DLB     KDIAG=    0  COREFL= F
 MXSEQ2=     300 MXSEQ3=     150  mem10=         0

          ----------------
          PROPERTIES INPUT
          ----------------

     MOMENTS            FIELD           POTENTIAL          DENSITY
 IEMOM =       1   IEFLD =       0   IEPOT =       0   IEDEN =       0
 WHERE =COMASS     WHERE =NUCLEI     WHERE =NUCLEI     WHERE =NUCLEI  
 OUTPUT=BOTH       OUTPUT=BOTH       OUTPUT=BOTH       OUTPUT=BOTH    
 IEMINT=       0   IEFINT=       0                     IEDINT=       0
                                                       MORB  =       0
          EXTRAPOLATION IN EFFECT
          DIIS IN EFFECT
 ORBITAL PRINTING OPTION: NPREO=     1    68     2     1

     -------------------------------
     INTEGRAL TRANSFORMATION OPTIONS
     -------------------------------
     NWORD  =            0
     CUTOFF = 1.0E-09     MPTRAN =       0
     DIRTRF =       T     AOINTS =DUP     

          ----------------------
          INTEGRAL INPUT OPTIONS
          ----------------------
 NOPK  =       1 NORDER=       0 SCHWRZ=       T

     ------------------------------------------
     THE POINT GROUP IS C1 , NAXIS= 0, ORDER= 1
     ------------------------------------------

     DIMENSIONS OF THE SYMMETRY SUBSPACES ARE
 A   =   68

 ..... DONE SETTING UP THE RUN .....
 STEP CPU TIME =     0.02 TOTAL CPU TIME =          0.0 (      0.0 MIN)
 TOTAL WALL CLOCK TIME=          0.0 SECONDS, CPU UTILIZATION IS    50.00%


          -----------------------------
          STATIONARY POINT LOCATION RUN
          -----------------------------

 OBTAINING INITIAL HESSIAN, HESS=GUESS   
 CARTESIAN COORDINATE OPTIMIZATION USING BADGER'S RULE FORCE CONSTANT GUESS

          PARAMETERS CONTROLLING GEOMETRY SEARCH ARE
          METHOD =QA                  UPHESS =BFGS    
          NNEG   =         0          NFRZ   =         0
          NSTEP  =       999          IFOLOW =         1
          HESS   =GUESS               RESTAR =         F
          IHREP  =         0          HSSEND =         T
          NPRT   =         0          NPUN   =         0
          OPTTOL = 5.000E-04          RMIN   = 1.500E-03
          RMAX   = 1.000E-01          RLIM   = 7.000E-02
          DXMAX  = 3.000E-01          PURIFY =         F
          MOVIE  =         F          TRUPD  =         T
          TRMAX  = 5.000E-01          TRMIN  = 5.000E-02
          ITBMAT =         5          STPT   =         F
          STSTEP = 1.000E-02          PROJCT=          T

 BEGINNING GEOMETRY SEARCH POINT NSERCH=   0 ...

 COORDINATES OF ALL ATOMS ARE (ANGS)
   ATOM   CHARGE       X              Y              Z
 ------------------------------------------------------------
 C           6.0  -0.8793300000   0.0295200000   0.1632500000
 O           8.0  -0.8009500000   1.2419300000   0.0490800000
 C           6.0   0.2356100000  -0.9047900000  -0.1373000000
 C           6.0   1.5209400000  -0.5188700000  -0.0898200000
 H           1.0  -1.8077000000  -0.4649500000   0.5001200000
 H           1.0  -0.0399400000  -1.9210000000  -0.3788200000
 H           1.0   1.7990100000   0.4959900000   0.1703400000
 H           1.0   2.3153800000  -1.2205200000  -0.3101600000

          ********************
          1 ELECTRON INTEGRALS
          ********************
 ...... END OF ONE-ELECTRON INTEGRALS ......
 STEP CPU TIME =     0.01 TOTAL CPU TIME =          0.0 (      0.0 MIN)
 TOTAL WALL CLOCK TIME=          0.1 SECONDS, CPU UTILIZATION IS    50.00%

          -------------
          GUESS OPTIONS
          -------------
          GUESS =HUCKEL            NORB  =       0          NORDER=       0
          MIX   =       F          PRTMO =       F          PUNMO =       F
          TOLZ  = 1.0E-08          TOLE  = 1.0E-05
          SYMDEN=       F          PURIFY=       F

 INITIAL GUESS ORBITALS GENERATED BY HUCKEL   ROUTINE.
 HUCKEL GUESS REQUIRES     42032 WORDS.

 SYMMETRIES FOR INITIAL GUESS ORBITALS FOLLOW.   BOTH SET(S).
    15 ORBITALS ARE OCCUPIED (    4 CORE ORBITALS).
     5=A        6=A        7=A        8=A        9=A       10=A       11=A   
    12=A       13=A       14=A       15=A       16=A       17=A       18=A   
    19=A       20=A       21=A       22=A       23=A       24=A       25=A   
 ...... END OF INITIAL ORBITAL SELECTION ......
 STEP CPU TIME =     0.01 TOTAL CPU TIME =          0.0 (      0.0 MIN)
 TOTAL WALL CLOCK TIME=          0.1 SECONDS, CPU UTILIZATION IS    57.14%

                    ----------------------
                    AO INTEGRAL TECHNOLOGY
                    ----------------------
     S,P,L SHELL ROTATED AXIS INTEGRALS, REPROGRAMMED BY
        KAZUYA ISHIMURA (IMS) AND JOSE SIERRA (SYNSTAR).
     S,P,D,L SHELL ROTATED AXIS INTEGRALS PROGRAMMED BY
        KAZUYA ISHIMURA (INSTITUTE FOR MOLECULAR SCIENCE).
     S,P,D,F,G SHELL TO TOTAL QUARTET ANGULAR MOMENTUM SUM 5,
        ERIC PROGRAM BY GRAHAM FLETCHER (ELORET AND NASA ADVANCED
        SUPERCOMPUTING DIVISION, AMES RESEARCH CENTER).
     S,P,D,F,G,L SHELL GENERAL RYS QUADRATURE PROGRAMMED BY
        MICHEL DUPUIS (PACIFIC NORTHWEST NATIONAL LABORATORY).

          --------------------
          2 ELECTRON INTEGRALS
          --------------------

 DIRECT SCF METHOD SKIPS INTEGRAL STORAGE ON DISK.
 DIRECT TRANSFORMATION SKIPS AO INTEGRAL STORAGE ON DISK.
  ...... END OF TWO-ELECTRON INTEGRALS .....
 STEP CPU TIME =     0.00 TOTAL CPU TIME =          0.0 (      0.0 MIN)
 TOTAL WALL CLOCK TIME=          0.1 SECONDS, CPU UTILIZATION IS    50.00%

          --------------------------
             R-B3LYP SCF CALCULATION
          --------------------------

     NUCLEAR ENERGY =       104.1056450302
     MAXIT =  200     NPUNCH=    2
     EXTRAP=T  DAMP=F  SHIFT=F  RSTRCT=F  DIIS=T  DEM=F  SOSCF=F
         DENSITY MATRIX CONVERGENCE THRESHOLD=  2.00E-05
     COARSE -> FINE DFT GRID SWITCH THRESHOLD=  3.00E-04 (SWITCH IN $DFT)
                   HF -> DFT SWITCH THRESHOLD=  5.00E-03 (SWOFF IN $DFT)
     MEMORY REQUIRED FOR RHF ITERS=    620217 WORDS.

 DIRECT SCF CALCULATION, SCHWRZ=T   FDIFF=T,  DIRTHR=  0.00E+00 NITDIR=10
 SCHWARZ INEQUALITY OVERHEAD:      2344 INTEGRALS, T=        0.00

 DFT CODE IS SWITCHING FROM THE FINE GRID NRAD= 96,  NLEB=  590
                      TO THE COARSE GRID NRAD0= 24, NLEB0=  110

     EXCHANGE FUNCTIONAL   =B88&HFX   
     CORRELATION FUNCTIONAL=LYP88&VWN5
     DFT THRESHOLD         =.883E-08
     GRID CHANGE THRESHOLD =.300E-03
 FOR AN EULER-MACLAURIN QUADRATURE USING  96 RADIAL POINTS:
 SMALLEST GAUSSIAN PRIMITIVE EXPONENT=        0.1612777588 OF TYPE -S-
 ON ATOM NUMBER   5 HAS RADIAL NORMALIZATION=  1.000000
  LARGEST GAUSSIAN PRIMITIVE EXPONENT=     5484.6716600000 OF TYPE -S-
 ON ATOM NUMBER   2 HAS RADIAL NORMALIZATION=  1.000000
 DFT IS SWITCHED OFF, PERFORMING PURE SCF UNTIL SWOFF THRESHOLD IS REACHED.

                                                                                   NONZERO     BLOCKS
 ITER EX DEM     TOTAL ENERGY        E CHANGE  DENSITY CHANGE    DIIS ERROR      INTEGRALS    SKIPPED
          * * *   INITIATING DIIS PROCEDURE   * * *
   1  0  0     -190.2048710001  -190.2048710001   0.298357270   0.423631750        2645372       3605
   2  1  0     -190.6943202727    -0.4894492726   0.136859040   0.099491043        2645121       3921
   3  2  0     -190.7329424618    -0.0386221891   0.068474724   0.072226706        2640261       4419
   4  3  0     -190.7551036872    -0.0221612253   0.010298756   0.007639289        2632866       4842
   5  4  0     -190.7557284648    -0.0006247776   0.005999510   0.002700749        2616137       5513
   6  5  0     -190.7558332794    -0.0001048146   0.002087384   0.000922337        2603365       6058
 CONVERGED TO SWOFF, SO DFT CALCULATION IS NOW SWITCHED ON.
          * * *   INITIATING DIIS PROCEDURE   * * *
   7  6  0     -191.7763961886    -1.0205629092   0.115290930   0.099418966        2645421       3606
   8  7  0     -191.7939960523    -0.0175998637   0.065471311   0.027036319        2641329       4282
   9  8  0     -191.7893701117     0.0046259406   0.052930663   0.036378173        2633716       4716
  10  9  0     -191.7981447462    -0.0087746345   0.009170544   0.008526912        2626118       5070
  11 10  0     -191.7984658283    -0.0003210821   0.000971367   0.001001770        2606319       5840
  12 11  0     -191.7984686404    -0.0000028120   0.000645588   0.000400139        2573254       7161
  13 12  0     -191.7984695027    -0.0000008623   0.000136610   0.000142414        2535701       8290
 DFT CODE IS SWITCHING BACK TO THE FINE GRID
          * * *   INITIATING DIIS PROCEDURE   * * *
  14 13  0     -191.7967283512     0.0017411515   0.004133864   0.001721045        2645532       3571
  15 14  0     -191.7967370524    -0.0000087012   0.001049071   0.000314433        2593399       6609
  16 15  0     -191.7967361678     0.0000008845   0.000627751   0.000505332        2549663       8079
  17 16  0     -191.7967375181    -0.0000013503   0.000063420   0.000050564        2528866       8659
  18 17  0     -191.7967375293    -0.0000000111   0.000025281   0.000017884        2475571      10139
  19 18  0     -191.7967375323    -0.0000000030   0.000004319   0.000004834        2404595      11644
  20 19  0     -191.7967375325    -0.0000000002   0.000002167   0.000001203        2287198      14619

          -----------------
          DENSITY CONVERGED
          -----------------
     TIME TO FORM FOCK OPERATORS=       9.6 SECONDS (       0.5 SEC/ITER)
     FOCK TIME ON FIRST ITERATION=       0.1, LAST ITERATION=       1.1
     TIME TO SOLVE SCF EQUATIONS=       0.1 SECONDS (       0.0 SEC/ITER)

 FINAL R-B3LYP ENERGY IS     -191.7967375325 AFTER  20 ITERATIONS
 DFT EXCHANGE + CORRELATION ENERGY =       -21.1483481380
 TOTAL ELECTRON NUMBER             =        29.9999958638

          ------------
          EIGENVECTORS
          ------------

                      1          2          3          4          5
                  -19.1450   -10.2746   -10.2098   -10.2034    -1.0364
                     A          A          A          A          A   
    1  C  1  S    0.000008   0.992827  -0.000151  -0.002134  -0.118021
    2  C  1  S    0.000513   0.048736  -0.000186  -0.000338   0.229268
    3  C  1  X    0.000042   0.000126  -0.000073  -0.000213   0.016521
    4  C  1  Y   -0.000015   0.000780  -0.000008   0.000142   0.178271
    5  C  1  Z   -0.000013  -0.000101   0.000017   0.000071  -0.018083
    6  C  1  S   -0.002725  -0.009240   0.000612   0.004664   0.084915
    7  C  1  X   -0.000659  -0.000219   0.000519   0.002168  -0.013622
    8  C  1  Y   -0.003150   0.003514  -0.000099  -0.000492  -0.031209
    9  C  1  Z    0.000360  -0.000038  -0.000160  -0.000484   0.005477
   10  C  1 XX   -0.000057  -0.009450   0.000041  -0.000286  -0.017527
   11  C  1 YY   -0.000844  -0.008434  -0.000018  -0.000345   0.023102
   12  C  1 ZZ   -0.000034  -0.009670  -0.000073  -0.000140  -0.018939
   13  C  1 XY   -0.000073   0.000042  -0.000015   0.000212   0.004198
   14  C  1 XZ    0.000009  -0.000081  -0.000010   0.000043  -0.000989
   15  C  1 YZ    0.000097  -0.000128   0.000018  -0.000102  -0.004827
   16  O  2  S    0.992765  -0.000137  -0.000002   0.000021  -0.194703
   17  O  2  S    0.025707   0.000372  -0.000001   0.000071   0.426305
   18  O  2  X   -0.000067  -0.000007  -0.000007   0.000005  -0.008603
   19  O  2  Y   -0.001153   0.000053   0.000008  -0.000021  -0.160842
   20  O  2  Z    0.000112   0.000013   0.000004   0.000035   0.015065
   21  O  2  S    0.013659  -0.002759  -0.000091  -0.000920   0.394895
   22  O  2  X   -0.000014   0.000240  -0.000083  -0.000244  -0.000269
   23  O  2  Y   -0.001545   0.001868   0.000010   0.000226  -0.054183
   24  O  2  Z    0.000152  -0.000279   0.000010  -0.000051   0.005086
   25  O  2 XX   -0.008089   0.000258  -0.000007   0.000097  -0.009742
   26  O  2 YY   -0.007576  -0.000321   0.000008   0.000127   0.010376
   27  O  2 ZZ   -0.008103   0.000376  -0.000029  -0.000010  -0.006023
   28  O  2 XY    0.000019  -0.000066   0.000010   0.000029   0.001210
   29  O  2 XZ   -0.000008   0.000056  -0.000009  -0.000060   0.001721
   30  O  2 YZ   -0.000057   0.000091  -0.000003  -0.000014  -0.001934
   31  C  3  S   -0.000011   0.001891   0.064152   0.990678  -0.020020
   32  C  3  S   -0.000036   0.000008   0.002738   0.049570   0.036076
   33  C  3  X   -0.000071   0.000265  -0.000401   0.000051  -0.015567
   34  C  3  Y   -0.000012  -0.000181  -0.000134   0.000138   0.023643
   35  C  3  Z    0.000018  -0.000063  -0.000018   0.000083   0.004449
   36  C  3  S    0.000718   0.002426   0.003204  -0.015655   0.021303
   37  C  3  X    0.001388  -0.002933   0.001991  -0.000728   0.014974
   38  C  3  Y    0.000792   0.000017   0.000187  -0.002219   0.015163
   39  C  3  Z   -0.000130   0.000328  -0.000006  -0.000535  -0.001347
   40  C  3 XX    0.000087  -0.000472  -0.000932  -0.009083   0.002614
   41  C  3 YY   -0.000076  -0.000293  -0.000836  -0.009388   0.003752
   42  C  3 ZZ   -0.000027  -0.000135  -0.000749  -0.009597  -0.002232
   43  C  3 XY    0.000014   0.000167  -0.000006   0.000103  -0.004802
   44  C  3 XZ    0.000003   0.000061   0.000001  -0.000009  -0.000812
   45  C  3 YZ   -0.000008  -0.000030  -0.000025   0.000069   0.001479
   46  C  4  S    0.000004  -0.000039   0.990610  -0.064615  -0.007048
   47  C  4  S    0.000018  -0.000206   0.049128  -0.003733   0.013114
   48  C  4  X    0.000036  -0.000013  -0.000053   0.000350  -0.008569
   49  C  4  Y    0.000038  -0.000070  -0.000072   0.000111   0.001791
   50  C  4  Z   -0.000015  -0.000032   0.000024   0.000014   0.000330
   51  C  4  S   -0.001225   0.001770  -0.012671   0.006297  -0.009158
   52  C  4  X    0.000692  -0.001122   0.000841  -0.002288   0.003483
   53  C  4  Y    0.000195  -0.000133   0.000408   0.000001   0.002021
   54  C  4  Z    0.000142  -0.000001   0.000045   0.000086   0.001275
   55  C  4 XX   -0.000041   0.000121  -0.009230   0.000287   0.000942
   56  C  4 YY    0.000014   0.000003  -0.009457   0.000386  -0.000059
   57  C  4 ZZ    0.000017  -0.000086  -0.009753   0.000518  -0.000888
   58  C  4 XY   -0.000052   0.000062   0.000079  -0.000090  -0.000582
   59  C  4 XZ   -0.000028   0.000013  -0.000005  -0.000008  -0.000175
   60  C  4 YZ   -0.000007   0.000038   0.000097  -0.000036   0.000113
   61  H  5  S   -0.000048  -0.000244   0.000007  -0.000067   0.028065
   62  H  5  S   -0.000581   0.002448   0.000256   0.000350  -0.016088
   63  H  6  S    0.000108  -0.000211  -0.000098  -0.000394   0.006131
   64  H  6  S    0.000275  -0.000413   0.000049   0.001590   0.004910
   65  H  7  S    0.000089  -0.000114  -0.000340  -0.000108   0.003968
   66  H  7  S   -0.000211   0.000120   0.002083  -0.000546   0.003069
   67  H  8  S    0.000014  -0.000020  -0.000337  -0.000022   0.001646
   68  H  8  S   -0.000064   0.000313   0.002208  -0.000017   0.001118

                      6          7          8          9         10
                   -0.7891    -0.6571    -0.5455    -0.5049    -0.4426
                     A          A          A          A          A   
    1  C  1  S   -0.047810   0.118853  -0.091938  -0.010725   0.030011
    2  C  1  S    0.095442  -0.250298   0.198679   0.027726  -0.075902
    3  C  1  X    0.067574   0.003202  -0.168521   0.281493   0.064187
    4  C  1  Y   -0.116203   0.183895  -0.049180   0.004818  -0.258463
    5  C  1  Z   -0.010007  -0.004829   0.072851  -0.061448  -0.039706
    6  C  1  S    0.079759  -0.203809   0.200294   0.017003  -0.073399
    7  C  1  X    0.019737   0.015367  -0.054975   0.091435   0.010044
    8  C  1  Y   -0.014428   0.069866  -0.043465   0.008746  -0.061442
    9  C  1  Z   -0.002228  -0.006142   0.025837  -0.014705  -0.018633
   10  C  1 XX    0.009770  -0.005167   0.003789   0.001932   0.003303
   11  C  1 YY   -0.006100   0.009432  -0.011511  -0.006962   0.001084
   12  C  1 ZZ   -0.003178   0.006991  -0.005888  -0.001323   0.006316
   13  C  1 XY   -0.007026   0.001305   0.009609  -0.002032  -0.001570
   14  C  1 XZ   -0.003802   0.006033  -0.003702   0.001224  -0.000820
   15  C  1 YZ    0.002408  -0.001017  -0.002995   0.001004   0.001268
   16  O  2  S    0.043527  -0.057809   0.055005   0.019697  -0.068244
   17  O  2  S   -0.097606   0.134885  -0.124127  -0.043861   0.133273
   18  O  2  X    0.019369   0.007544  -0.071469   0.165110   0.082240
   19  O  2  Y    0.003428   0.047932  -0.108390  -0.063916   0.350343
   20  O  2  Z   -0.005113  -0.001185   0.040404  -0.027005  -0.078904
   21  O  2  S   -0.110267   0.142550  -0.178202  -0.076254   0.326181
   22  O  2  X    0.006372   0.004062  -0.033462   0.089450   0.048065
   23  O  2  Y   -0.000819   0.035011  -0.056541  -0.032467   0.167793
   24  O  2  Z   -0.001603  -0.001604   0.020378  -0.014922  -0.041583
   25  O  2 XX    0.001526   0.000981   0.001298  -0.000349  -0.004406
   26  O  2 YY    0.002287  -0.007728   0.010677   0.006827  -0.026828
   27  O  2 ZZ    0.000265   0.001455  -0.000192  -0.001254  -0.003597
   28  O  2 XY   -0.001981  -0.000996   0.007132  -0.013483  -0.005758
   29  O  2 XZ   -0.000247   0.000547  -0.001284   0.001081   0.001505
   30  O  2 YZ    0.000380   0.000673  -0.004209   0.001891   0.006165
   31  C  3  S   -0.164044   0.052983   0.096263  -0.000504   0.006425
   32  C  3  S    0.321463  -0.107156  -0.197857   0.005231  -0.016500
   33  C  3  X    0.061117   0.222050  -0.036050  -0.030965  -0.280316
   34  C  3  Y    0.034631  -0.006789   0.123603   0.293645  -0.063085
   35  C  3  Z    0.010510  -0.019304   0.048217   0.065534  -0.002064
   36  C  3  S    0.217562  -0.091272  -0.191255  -0.003990   0.011968
   37  C  3  X   -0.005462   0.052686   0.017258  -0.007989  -0.113845
   38  C  3  Y   -0.017260   0.000188   0.052366   0.091284  -0.009530
   39  C  3  Z   -0.001198  -0.003326   0.016795   0.017987   0.003555
   40  C  3 XX    0.005151   0.002876   0.011807  -0.002849  -0.003362
   41  C  3 YY   -0.001667  -0.004873  -0.007159  -0.003071   0.007804
   42  C  3 ZZ   -0.014765   0.003700   0.007393   0.000363   0.000308
   43  C  3 XY    0.003964   0.009081  -0.005585  -0.003824   0.000274
   44  C  3 XZ   -0.000221   0.003320  -0.002922  -0.000027  -0.000352
   45  C  3 YZ    0.004647  -0.003907  -0.002770  -0.000857   0.002065
   46  C  4  S   -0.142216  -0.127672  -0.065942   0.006595   0.004579
   47  C  4  S    0.275973   0.255016   0.135883  -0.015163  -0.013045
   48  C  4  X   -0.095737   0.047132   0.189563  -0.123458   0.241089
   49  C  4  Y   -0.028202  -0.005022   0.109458   0.219154   0.174532
   50  C  4  Z   -0.001892  -0.004456   0.026788   0.058903   0.036441
   51  C  4  S    0.218517   0.224820   0.138836  -0.014760   0.017283
   52  C  4  X   -0.009648   0.026070   0.077697  -0.045537   0.068449
   53  C  4  Y   -0.000108   0.000932   0.037639   0.089363   0.058691
   54  C  4  Z    0.001153  -0.001129   0.011265   0.024263   0.010549
   55  C  4 XX    0.007776  -0.002701  -0.006338   0.000430  -0.005218
   56  C  4 YY   -0.000659   0.005802   0.009470  -0.001344   0.012971
   57  C  4 ZZ   -0.013754  -0.010711  -0.004142   0.000142   0.000630
   58  C  4 XY    0.002851  -0.002526  -0.007769   0.003062  -0.001298
   59  C  4 XZ   -0.000628  -0.000871  -0.002561   0.001184   0.000222
   60  C  4 YZ    0.004350   0.005647   0.005205  -0.000342   0.004073
   61  H  5  S    0.027922  -0.122973   0.170995  -0.118826  -0.004431
   62  H  5  S    0.008450  -0.038364   0.088505  -0.084665   0.007096
   63  H  6  S    0.086317  -0.060458  -0.147499  -0.151985   0.075288
   64  H  6  S    0.007725  -0.023047  -0.071773  -0.110024   0.067405
   65  H  7  S    0.071114   0.100184   0.136585   0.090459   0.138642
   66  H  7  S    0.006783   0.034283   0.062667   0.051176   0.123452
   67  H  8  S    0.072516   0.113648   0.095117  -0.136009   0.032613
   68  H  8  S    0.012223   0.039398   0.046149  -0.084953   0.031760

                     11         12         13         14         15
                   -0.4276    -0.3883    -0.3832    -0.2826    -0.2532
                     A          A          A          A          A   
    1  C  1  S    0.029223   0.015654   0.010152   0.001086   0.000455
    2  C  1  S   -0.076205  -0.031490  -0.017030  -0.001270  -0.014787
    3  C  1  X   -0.193160  -0.189974   0.051338   0.025600  -0.131475
    4  C  1  Y   -0.137843   0.117369   0.177043   0.012206   0.018934
    5  C  1  Z    0.182833  -0.206135   0.223680  -0.044171   0.040211
    6  C  1  S   -0.041306  -0.073060  -0.059174  -0.009625   0.036702
    7  C  1  X   -0.047003  -0.098712   0.025171  -0.003052   0.060422
    8  C  1  Y    0.027798   0.041165   0.036929  -0.013039  -0.056186
    9  C  1  Z    0.076419  -0.119320   0.135923  -0.028835  -0.020212
   10  C  1 XX    0.018075  -0.004845  -0.010629  -0.003407   0.008388
   11  C  1 YY   -0.003609   0.003172   0.012473   0.003865  -0.007395
   12  C  1 ZZ    0.002572   0.002385  -0.006035  -0.002913   0.000841
   13  C  1 XY    0.001386  -0.005922   0.002248  -0.012275   0.045052
   14  C  1 XZ   -0.001104  -0.001636   0.005721   0.011145  -0.005476
   15  C  1 YZ    0.002838  -0.011583   0.015832  -0.018889  -0.016857
   16  O  2  S   -0.042739   0.016465   0.020714  -0.002135   0.000369
   17  O  2  S    0.092284  -0.030379  -0.040117   0.007743  -0.006811
   18  O  2  X   -0.104349  -0.204810   0.047264  -0.118267   0.540402
   19  O  2  Y    0.297924  -0.133682  -0.164963  -0.047278  -0.060603
   20  O  2  Z    0.119044  -0.237742   0.338234  -0.225559  -0.203963
   21  O  2  S    0.159122  -0.087929  -0.095232   0.009770   0.026015
   22  O  2  X   -0.060573  -0.119702   0.031755  -0.088233   0.382996
   23  O  2  Y    0.168630  -0.068673  -0.089766  -0.032374  -0.048497
   24  O  2  Z    0.068323  -0.147412   0.209239  -0.158524  -0.143615
   25  O  2 XX    0.003263   0.002986  -0.000281   0.000240  -0.002647
   26  O  2 YY   -0.021189   0.008593   0.007819   0.003461   0.001263
   27  O  2 ZZ    0.003667  -0.001855   0.003201  -0.001731  -0.003560
   28  O  2 XY    0.008085   0.013457  -0.003653   0.005010  -0.016988
   29  O  2 XZ   -0.000969  -0.000730  -0.000427   0.001715   0.002201
   30  O  2 YZ   -0.008098   0.016040  -0.021907   0.010717   0.006459
   31  C  3  S   -0.015165  -0.008654  -0.004261  -0.003817   0.037887
   32  C  3  S    0.034913   0.012626   0.005259   0.003121  -0.077552
   33  C  3  X    0.212734   0.034433  -0.068664  -0.004986   0.161216
   34  C  3  Y    0.062049  -0.116225  -0.226668  -0.077483  -0.157507
   35  C  3  Z    0.076905  -0.140563   0.048129   0.364981   0.000309
   36  C  3  S    0.002206   0.058156   0.027597   0.048128  -0.302172
   37  C  3  X    0.014445   0.007603  -0.013142   0.025278   0.114611
   38  C  3  Y   -0.006813  -0.019404  -0.076562  -0.042360  -0.116261
   39  C  3  Z    0.040914  -0.064093   0.034534   0.258781  -0.001933
   40  C  3 XX    0.002222  -0.005011  -0.012924   0.000035  -0.000508
   41  C  3 YY   -0.010955   0.009483   0.016811  -0.002442   0.003880
   42  C  3 ZZ    0.001136  -0.003324   0.001713   0.000843   0.001433
   43  C  3 XY    0.010776   0.014229   0.010480  -0.004412   0.005854
   44  C  3 XZ   -0.000109   0.006609   0.001921   0.013856   0.002074
   45  C  3 YZ    0.000301  -0.002501   0.008821   0.003246  -0.001320
   46  C  4  S   -0.011800  -0.005552   0.012333   0.000781  -0.003827
   47  C  4  S    0.025580   0.014204  -0.027202  -0.001563   0.002768
   48  C  4  X   -0.281280  -0.084821   0.067946   0.026419  -0.052722
   49  C  4  Y    0.090583   0.264979   0.177569  -0.092769  -0.020685
   50  C  4  Z    0.068209   0.017021   0.104710   0.362597   0.040121
   51  C  4  S    0.063030   0.013574  -0.037919  -0.022348   0.015903
   52  C  4  X   -0.119210  -0.005558   0.030142   0.039396  -0.087332
   53  C  4  Y    0.022978   0.101662   0.067018  -0.059897  -0.003923
   54  C  4  Z    0.026450  -0.005847   0.057310   0.253054   0.023737
   55  C  4 XX   -0.001272  -0.010062  -0.008322  -0.001212  -0.004586
   56  C  4 YY   -0.005571   0.008762   0.011980   0.001715   0.003528
   57  C  4 ZZ   -0.000843   0.000609   0.001382  -0.000582  -0.001502
   58  C  4 XY    0.013565   0.017018   0.011850   0.002916   0.005760
   59  C  4 XZ    0.000908   0.009067  -0.000614  -0.014172   0.000455
   60  C  4 YZ   -0.002245   0.002891   0.002588  -0.004972  -0.000501
   61  H  5  S    0.133401   0.007594  -0.051106  -0.046037   0.170095
   62  H  5  S    0.134708   0.009106  -0.050960  -0.060958   0.268546
   63  H  6  S   -0.065125   0.107537   0.168032  -0.003651   0.048205
   64  H  6  S   -0.070773   0.104937   0.164424  -0.003205   0.086414
   65  H  7  S    0.026807   0.160522   0.134283  -0.000309   0.010260
   66  H  7  S    0.024102   0.120398   0.123900  -0.016665   0.068118
   67  H  8  S   -0.166402  -0.159915  -0.076868   0.004427  -0.034857
   68  H  8  S   -0.142707  -0.159129  -0.066493  -0.000138  -0.022432

                     16         17         18         19         20
                   -0.0614     0.0560     0.1088     0.1320     0.1613
                     A          A          A          A          A   
    1  C  1  S   -0.001738   0.000899   0.056094   0.056681   0.095752
    2  C  1  S    0.000194   0.008818  -0.100557  -0.071982  -0.144854
    3  C  1  X   -0.110536  -0.134504   0.108701   0.103981   0.179845
    4  C  1  Y   -0.023195  -0.048434   0.103300   0.068180   0.138068
    5  C  1  Z   -0.330427  -0.362398  -0.115278   0.011576  -0.078471
    6  C  1  S    0.038616  -0.085835  -0.782794  -1.047086  -1.383175
    7  C  1  X   -0.101606  -0.170021   0.229474   0.233476   0.522431
    8  C  1  Y    0.024379  -0.147881   0.229569   0.087342   0.667962
    9  C  1  Z   -0.315005  -0.471881  -0.249889  -0.023967  -0.157419
   10  C  1 XX    0.002712  -0.001850   0.017930  -0.002255   0.002272
   11  C  1 YY   -0.002232   0.014560  -0.004362   0.006999   0.021026
   12  C  1 ZZ   -0.000327  -0.013002  -0.002271   0.001264   0.000063
   13  C  1 XY    0.010359   0.002268   0.000007   0.002515  -0.007814
   14  C  1 XZ   -0.003863   0.016963   0.002330  -0.004024  -0.005050
   15  C  1 YZ    0.028553   0.005258   0.001136   0.000408  -0.001201
   16  O  2  S    0.003695  -0.011458   0.003840  -0.022135  -0.001305
   17  O  2  S   -0.001108   0.016614  -0.013574   0.054750   0.035552
   18  O  2  X    0.108992   0.093363  -0.060253   0.023864  -0.052952
   19  O  2  Y    0.041326  -0.027875   0.002248  -0.053888  -0.081812
   20  O  2  Z    0.318887   0.242072   0.059056   0.000613   0.015984
   21  O  2  S   -0.060611   0.148818  -0.028432   0.222979  -0.177398
   22  O  2  X    0.105917   0.105101  -0.090052  -0.049661  -0.110988
   23  O  2  Y    0.052472  -0.057987   0.005768  -0.141423  -0.017224
   24  O  2  Z    0.311856   0.283907   0.093338   0.008008   0.020433
   25  O  2 XX    0.002836  -0.004459   0.004199  -0.007331   0.013846
   26  O  2 YY    0.001615  -0.000964  -0.002729   0.009479   0.001102
   27  O  2 ZZ    0.003795  -0.007149  -0.003876  -0.001706   0.006105
   28  O  2 XY   -0.000764   0.002711  -0.001704  -0.002716  -0.001206
   29  O  2 XZ    0.000232   0.002458  -0.000862  -0.002828  -0.002478
   30  O  2 YZ   -0.001704   0.004039   0.000672  -0.002254   0.002706
   31  C  3  S    0.002067  -0.002986   0.043204   0.000137  -0.090898
   32  C  3  S    0.006915   0.015063  -0.058616   0.004715   0.142344
   33  C  3  X    0.001258   0.013474   0.018460  -0.084048  -0.075600
   34  C  3  Y    0.054409  -0.121709   0.253776   0.042631  -0.095449
   35  C  3  Z   -0.193563   0.382360   0.120278  -0.019046  -0.028084
   36  C  3  S   -0.081006  -0.020915  -0.820376   0.012960   1.391580
   37  C  3  X   -0.087961  -0.071168  -0.012473  -0.410559  -0.416763
   38  C  3  Y    0.033239  -0.215919   0.538031   0.090487  -0.474156
   39  C  3  Z   -0.260051   0.570646   0.279501   0.018966  -0.009111
   40  C  3 XX    0.010328   0.013182  -0.012039   0.000795  -0.011156
   41  C  3 YY   -0.004783  -0.002799   0.017780  -0.000740  -0.000593
   42  C  3 ZZ   -0.003416  -0.008095   0.001751   0.002367  -0.002896
   43  C  3 XY   -0.006682   0.001302   0.012179   0.012272  -0.003934
   44  C  3 XZ    0.028227  -0.002518   0.005611   0.001951  -0.000862
   45  C  3 YZ   -0.003585  -0.019079  -0.001586  -0.002512  -0.004215
   46  C  4  S   -0.007601  -0.019249   0.034770  -0.116631   0.060164
   47  C  4  S    0.013134   0.039296  -0.058914   0.179729  -0.104253
   48  C  4  X   -0.011209  -0.027642  -0.133965   0.188283   0.016793
   49  C  4  Y   -0.103441   0.044529   0.160051   0.082740  -0.107308
   50  C  4  Z    0.340504  -0.252145   0.019658   0.034882  -0.024449
   51  C  4  S    0.118948   0.246125  -0.467928   1.936805  -0.591188
   52  C  4  X   -0.051220  -0.042828  -0.402475   0.459621   0.051089
   53  C  4  Y   -0.141551   0.061533   0.288425   0.196461  -0.215365
   54  C  4  Z    0.414504  -0.449617   0.024933   0.055542  -0.085937
   55  C  4 XX    0.000409  -0.003568   0.009907   0.002706   0.008858
   56  C  4 YY   -0.001413   0.004039  -0.003050  -0.015410   0.002072
   57  C  4 ZZ   -0.000679  -0.003730  -0.000254  -0.005825   0.002057
   58  C  4 XY   -0.001785   0.009169  -0.019347  -0.004016   0.004545
   59  C  4 XZ    0.010645  -0.021504  -0.008520   0.001374   0.002425
   60  C  4 YZ    0.000814  -0.009470  -0.002670  -0.002449  -0.001547
   61  H  5  S    0.014114  -0.027548   0.040713   0.036852   0.062549
   62  H  5  S    0.019192  -0.109012   0.920863   0.794158   1.587018
   63  H  6  S   -0.027609  -0.039506   0.061782   0.021492  -0.069277
   64  H  6  S   -0.059016  -0.191185   1.251067   0.058201  -1.315051
   65  H  7  S   -0.002824   0.002502  -0.037505  -0.095637   0.038195
   66  H  7  S    0.019594  -0.007469  -0.202315  -1.377320   0.706319
   67  H  8  S   -0.006636  -0.016811   0.079013  -0.036395   0.019371
   68  H  8  S   -0.019856  -0.156486   1.024894  -1.107644   0.078788

                     21         22         23         24         25
                    0.1908     0.2694     0.3198     0.3343     0.5133
                     A          A          A          A          A   
    1  C  1  S    0.022837   0.036717  -0.013257  -0.086574   0.038436
    2  C  1  S   -0.059774   0.007002  -0.108677   0.128272  -0.013275
    3  C  1  X   -0.239358  -0.010042   0.017432   0.415368  -0.338642
    4  C  1  Y    0.046713  -0.181114   0.014677  -0.151625  -0.020337
    5  C  1  Z    0.073997   0.062108  -0.017656  -0.162494  -0.471569
    6  C  1  S    0.055882  -1.276563   0.821638   2.078795   0.001948
    7  C  1  X   -0.321174   0.176822   0.778638   1.630358   0.216311
    8  C  1  Y   -0.014319  -2.053676   1.097560  -0.818139  -0.399300
    9  C  1  Z    0.146785   0.182983  -0.081786  -0.501814   0.480122
   10  C  1 XX    0.008329  -0.020990  -0.022938  -0.006227   0.061178
   11  C  1 YY    0.005139   0.020381   0.028007  -0.013114   0.004336
   12  C  1 ZZ   -0.004992  -0.014279  -0.002784   0.011349  -0.021434
   13  C  1 XY   -0.002196   0.008329   0.000318   0.015118  -0.032175
   14  C  1 XZ   -0.006945  -0.003729   0.010614   0.006070  -0.040583
   15  C  1 YZ    0.000510  -0.001733   0.002287  -0.003796  -0.001480
   16  O  2  S   -0.010474  -0.106787   0.042677   0.006516  -0.018707
   17  O  2  S    0.035750   0.095973  -0.025137   0.005084   0.081250
   18  O  2  X    0.105384  -0.084233  -0.065382  -0.111121  -0.000659
   19  O  2  Y   -0.030290  -0.188971  -0.012102   0.092706  -0.015461
   20  O  2  Z   -0.019174   0.004643  -0.025882   0.055380  -0.024310
   21  O  2  S    0.065150   2.080073  -1.066807  -0.091345   0.268827
   22  O  2  X    0.138080  -0.142714  -0.080293  -0.356079   0.000011
   23  O  2  Y   -0.067744  -0.862677   0.396701   0.144095  -0.164168
   24  O  2  Z   -0.048055   0.077049  -0.062713   0.115141  -0.028388
   25  O  2 XX    0.001779  -0.065039   0.034245  -0.004673   0.019495
   26  O  2 YY    0.004973  -0.006012  -0.016685   0.016404   0.021298
   27  O  2 ZZ    0.002288  -0.065752   0.031503   0.012342  -0.005889
   28  O  2 XY    0.003951   0.007462   0.001975  -0.011100   0.022104
   29  O  2 XZ   -0.002752  -0.000286   0.002396   0.006506  -0.001093
   30  O  2 YZ   -0.001660  -0.009642   0.004463   0.005082   0.028663
   31  C  3  S   -0.073773   0.029935   0.088444   0.066334  -0.044951
   32  C  3  S    0.116566   0.020490  -0.099293  -0.084918   0.014564
   33  C  3  X   -0.083459  -0.020018  -0.231472   0.211650  -0.415248
   34  C  3  Y   -0.099186   0.030643  -0.194487  -0.238834   0.275736
   35  C  3  Z   -0.023263  -0.095244  -0.040480  -0.083228  -0.226160
   36  C  3  S    1.233732  -1.363240  -3.172532  -1.050515   0.086819
   37  C  3  X   -0.054748  -0.096626  -2.372365   1.929221   1.114812
   38  C  3  Y   -0.679250  -0.021313  -1.605841  -1.666304   0.002701
   39  C  3  Z   -0.215469  -0.252855  -0.216211  -0.449840   0.095104
   40  C  3 XX   -0.013213   0.036861  -0.015927  -0.001720  -0.054418
   41  C  3 YY    0.003579  -0.021254  -0.000767   0.021919   0.005745
   42  C  3 ZZ    0.000184   0.001238   0.008872  -0.006426   0.020578
   43  C  3 XY    0.030185   0.012726   0.005089  -0.038982  -0.011800
   44  C  3 XZ    0.007938  -0.008663   0.003088  -0.007835  -0.011165
   45  C  3 YZ    0.000745  -0.002501  -0.001795   0.007448  -0.027316
   46  C  4  S    0.016271  -0.012193  -0.077541   0.006488   0.004823
   47  C  4  S   -0.017777   0.052898  -0.020009  -0.002633  -0.195055
   48  C  4  X   -0.096662  -0.208773  -0.018549   0.050309   0.367492
   49  C  4  Y    0.327957  -0.039521  -0.001230   0.208990   0.236169
   50  C  4  Z    0.100835   0.023146  -0.012391   0.035446  -0.298678
   51  C  4  S   -0.266607   0.114490   3.231272  -0.606695  -0.522752
   52  C  4  X   -0.275608  -0.604274  -2.844385   0.205689  -0.187712
   53  C  4  Y    1.380229  -0.189976  -0.463517   1.087857  -0.280871
   54  C  4  Z    0.390370   0.079580  -0.027101   0.268444   0.262122
   55  C  4 XX    0.008149  -0.012954  -0.023549  -0.024331  -0.027884
   56  C  4 YY   -0.008783   0.007867   0.027816   0.029189  -0.007038
   57  C  4 ZZ    0.002934   0.003081  -0.009501  -0.000844   0.005530
   58  C  4 XY   -0.001755   0.007104  -0.026903   0.032793  -0.028797
   59  C  4 XZ   -0.000629   0.010366  -0.007537   0.009175   0.012781
   60  C  4 YZ   -0.002996   0.008112   0.013052   0.008664   0.010250
   61  H  5  S    0.028804   0.039954  -0.088057   0.014669   0.184632
   62  H  5  S   -0.442194  -0.180348   0.464168   0.688351  -0.135634
   63  H  6  S    0.017916  -0.095851   0.005625   0.000082  -0.059445
   64  H  6  S   -1.207563   0.108966  -1.042900  -0.722504   0.202741
   65  H  7  S   -0.047052   0.068803   0.065411   0.119253   0.036983
   66  H  7  S   -1.373880   0.368267   0.053627  -1.030451   0.133451
   67  H  8  S    0.047523  -0.012780   0.107652  -0.134486  -0.000426
   68  H  8  S    1.553654   0.384943   0.533059   0.600319  -0.122093

                     26         27         28         29         30
                    0.5189     0.5743     0.5828     0.6089     0.6439
                     A          A          A          A          A   
    1  C  1  S    0.041335  -0.016071   0.020027  -0.009964  -0.017965
    2  C  1  S    0.033596  -0.082926   0.354630  -0.378011   0.149364
    3  C  1  X    0.030937  -0.391606   0.234410  -0.102257  -0.000786
    4  C  1  Y   -0.036633   0.065321  -0.360745   0.122440   0.212083
    5  C  1  Z    0.430864  -0.374229  -0.532510  -0.231939   0.187008
    6  C  1  S   -0.164017   0.271497  -0.861125   0.603469  -0.001195
    7  C  1  X   -0.200149   1.104699  -0.800897  -0.171897  -0.032287
    8  C  1  Y   -0.301502  -0.581296   0.865577   0.156878   0.041946
    9  C  1  Z   -0.460705   0.321440   0.920503   0.507953  -0.572706
   10  C  1 XX    0.062588   0.007820   0.014306  -0.115035   0.018070
   11  C  1 YY    0.033712  -0.044006   0.071932   0.003450  -0.030222
   12  C  1 ZZ   -0.036103   0.006820   0.002184   0.028293   0.022387
   13  C  1 XY   -0.032852   0.026857  -0.018922  -0.021290  -0.004268
   14  C  1 XZ   -0.022337  -0.008752  -0.035212   0.021910  -0.011799
   15  C  1 YZ   -0.000667  -0.017459  -0.001559   0.007596   0.019066
   16  O  2  S   -0.017860  -0.004914  -0.004204   0.011663   0.013904
   17  O  2  S    0.063192  -0.079884   0.079898  -0.042171  -0.044357
   18  O  2  X   -0.003076  -0.231389   0.138024   0.123934   0.060416
   19  O  2  Y   -0.039826   0.059321  -0.084488  -0.056575   0.076998
   20  O  2  Z    0.062035   0.038337  -0.096951  -0.044988   0.027214
   21  O  2  S    0.240074   0.396832  -0.270044  -0.233826  -0.108264
   22  O  2  X    0.048588  -0.116140   0.093674   0.007322   0.008893
   23  O  2  Y   -0.142539  -0.095746  -0.019535   0.166627   0.123503
   24  O  2  Z    0.043221  -0.024632  -0.106503  -0.092094   0.046012
   25  O  2 XX    0.015145  -0.023767   0.020827  -0.009914  -0.010707
   26  O  2 YY   -0.007954  -0.004506  -0.006998  -0.019938   0.028957
   27  O  2 ZZ    0.001993  -0.037797   0.018215   0.015481  -0.016454
   28  O  2 XY   -0.005747   0.012730  -0.007947   0.014898   0.013917
   29  O  2 XZ   -0.011477  -0.005998  -0.007053  -0.002926   0.008077
   30  O  2 YZ   -0.025053   0.028209   0.038619   0.016488  -0.025126
   31  C  3  S   -0.036887   0.000401   0.041074  -0.024642  -0.013834
   32  C  3  S    0.040365  -0.096836   0.328109  -0.505501   0.137527
   33  C  3  X   -0.373520   0.216296  -0.177976  -0.011745   0.045124
   34  C  3  Y    0.082557  -0.165384   0.065292   0.072952   0.277621
   35  C  3  Z    0.425719   0.084542   0.089773   0.022708  -0.833522
   36  C  3  S    0.009876  -0.403021   0.062366   1.051400  -0.201585
   37  C  3  X    0.902093   0.265211  -0.518881  -0.282074  -0.072912
   38  C  3  Y    0.126140  -0.232570   0.354492  -0.176018  -0.388174
   39  C  3  Z   -0.245005  -0.231770  -0.049744  -0.107407   1.382109
   40  C  3 XX   -0.037862  -0.061544   0.129881  -0.013621  -0.014436
   41  C  3 YY   -0.006654   0.017477   0.046575  -0.146856   0.020947
   42  C  3 ZZ    0.029569   0.006101  -0.045756   0.034327  -0.001120
   43  C  3 XY   -0.027777   0.020500  -0.028776  -0.011262  -0.011716
   44  C  3 XZ    0.015016   0.048034   0.006038   0.013808   0.017394
   45  C  3 YZ    0.011156   0.004695   0.036152  -0.042204  -0.022092
   46  C  4  S    0.000790   0.013310  -0.016021  -0.022962   0.021572
   47  C  4  S   -0.127855  -0.144356   0.378742  -0.344858   0.131269
   48  C  4  X    0.323354   0.178636  -0.280454  -0.103387   0.097460
   49  C  4  Y    0.052582  -0.334981  -0.054987   0.107977  -0.055657
   50  C  4  Z    0.510633   0.494436   0.384648   0.311557   0.483227
   51  C  4  S   -0.495116   0.124836  -0.177115   0.740161  -0.287108
   52  C  4  X   -0.338156  -0.037026   0.017597   0.484913  -0.228189
   53  C  4  Y   -0.225643   0.811400  -0.275431  -0.290179   0.012792
   54  C  4  Z   -0.526311  -0.403975  -0.466846  -0.396616  -0.926925
   55  C  4 XX   -0.040176   0.040723  -0.016240  -0.067143   0.036256
   56  C  4 YY    0.021840  -0.038697   0.048006  -0.055315   0.039556
   57  C  4 ZZ   -0.001987  -0.008833   0.008871   0.036468  -0.023621
   58  C  4 XY    0.001287  -0.034168   0.009015   0.057617   0.003885
   59  C  4 XZ   -0.022509  -0.035136  -0.011585   0.010753   0.021118
   60  C  4 YZ   -0.006582  -0.007433   0.018471  -0.025716   0.013268
   61  H  5  S    0.184223   0.158740  -0.007974  -0.396457  -0.089502
   62  H  5  S   -0.079114   0.174356  -0.143137  -0.050116   0.079642
   63  H  6  S   -0.112187   0.176354   0.175052  -0.510205  -0.033462
   64  H  6  S    0.181824  -0.208854   0.193546  -0.022505  -0.013551
   65  H  7  S    0.138221  -0.239058   0.167234  -0.089137   0.183622
   66  H  7  S    0.204796  -0.264655   0.184216  -0.047169   0.127835
   67  H  8  S   -0.041068   0.171830  -0.007690  -0.437885   0.114297
   68  H  8  S   -0.027456   0.032409   0.006077  -0.211350   0.006478

                     31         32         33         34         35
                    0.6578     0.6957     0.8000     0.8419     0.8492
                     A          A          A          A          A   
    1  C  1  S    0.031521  -0.039641  -0.000597  -0.007534   0.054237
    2  C  1  S   -0.043670   0.598094   0.272023  -0.102419  -0.230042
    3  C  1  X    0.077157   0.052557  -0.670543  -0.084643   0.324358
    4  C  1  Y   -0.481771   0.789343  -0.090165  -0.019505   0.343451
    5  C  1  Z    0.193466  -0.059438   0.226288   0.023888  -0.127287
    6  C  1  S   -0.303536  -0.314085   1.250891   0.653168   1.395432
    7  C  1  X   -0.126965   0.014241   3.010538   0.307044  -0.384658
    8  C  1  Y    0.426589  -0.777906   0.718404  -0.181869  -0.136376
    9  C  1  Z   -0.440070   0.058044  -0.856379  -0.071926   0.152728
   10  C  1 XX    0.002733   0.092909  -0.034327   0.041707   0.018303
   11  C  1 YY    0.083568  -0.096960   0.163683  -0.073048   0.156005
   12  C  1 ZZ   -0.041142   0.047996   0.006209   0.002286  -0.094439
   13  C  1 XY    0.020261  -0.035504  -0.068027  -0.054994   0.070292
   14  C  1 XZ   -0.010285  -0.022444  -0.001732   0.003259  -0.053412
   15  C  1 YZ   -0.003042   0.032143   0.015296   0.032145  -0.040634
   16  O  2  S   -0.022315   0.035862   0.019228  -0.000414   0.006123
   17  O  2  S    0.030763  -0.123385  -0.116992   0.121270  -0.375435
   18  O  2  X   -0.090634  -0.004338  -0.026830   0.032522  -0.116556
   19  O  2  Y   -0.159787   0.347536  -0.271937   0.219832  -0.505484
   20  O  2  Z    0.072243  -0.038803   0.018225  -0.031121   0.015573
   21  O  2  S    0.026138   0.262834  -0.733942  -0.161737   0.269670
   22  O  2  X    0.056017   0.029495  -0.308688  -0.012062   0.151470
   23  O  2  Y   -0.157970   0.188419   0.726021  -0.340686   0.949577
   24  O  2  Z    0.042303  -0.017689   0.018005   0.024646  -0.065321
   25  O  2 XX    0.027899  -0.051707  -0.053822   0.056379  -0.131540
   26  O  2 YY   -0.092339   0.154468  -0.121744   0.068823  -0.190268
   27  O  2 ZZ   -0.001214  -0.059233   0.009525   0.041453  -0.132156
   28  O  2 XY   -0.026207   0.015580   0.074666   0.016303  -0.045357
   29  O  2 XZ    0.004408  -0.006235   0.004782  -0.003214   0.007412
   30  O  2 YZ    0.000138  -0.025237  -0.014181  -0.014775   0.016773
   31  C  3  S    0.045459   0.032415   0.038125   0.006516  -0.003384
   32  C  3  S   -0.289411  -0.014353   0.294548   0.091923   0.163909
   33  C  3  X   -0.400760  -0.472972  -0.076737  -0.146478   0.069593
   34  C  3  Y   -0.109112  -0.050272   0.592008   0.225431   0.158366
   35  C  3  Z   -0.356853   0.103644   0.190674   0.068203  -0.002153
   36  C  3  S    0.500295  -0.399491  -1.537578  -0.240003  -0.516029
   37  C  3  X    0.540717   0.353682   0.314271   0.569870  -0.245642
   38  C  3  Y    0.119591   0.191057  -2.772310  -1.327481  -0.678701
   39  C  3  Z    0.626233  -0.129946  -0.615189  -0.367093  -0.124684
   40  C  3 XX    0.063626   0.039264   0.041606   0.057595   0.000567
   41  C  3 YY    0.008502   0.037849   0.006838  -0.041433  -0.021886
   42  C  3 ZZ   -0.048442  -0.030034  -0.023896   0.000061   0.009610
   43  C  3 XY    0.023868   0.048516   0.056273  -0.057267  -0.011862
   44  C  3 XZ   -0.006495   0.027183   0.005734  -0.013817   0.004202
   45  C  3 YZ    0.001243   0.007954   0.000377  -0.011070  -0.012894
   46  C  4  S   -0.069165  -0.052700   0.007224   0.000370  -0.010575
   47  C  4  S   -0.300422  -0.030974   0.192841   0.015633   0.232580
   48  C  4  X   -0.275452  -0.384988  -0.222220   0.201715   0.212727
   49  C  4  Y   -0.211275  -0.050105   0.014485  -0.980883  -0.229877
   50  C  4  Z    0.034159  -0.014389  -0.039089  -0.262953  -0.071166
   51  C  4  S    0.632155   0.370852   0.576659   0.008980  -0.014693
   52  C  4  X    0.523982   0.317873   0.186881  -0.600477  -0.615396
   53  C  4  Y    0.556757  -0.213658   0.493842   2.508803   0.703559
   54  C  4  Z   -0.105585  -0.024840   0.168122   0.680843   0.192366
   55  C  4 XX   -0.118532  -0.098107   0.060843  -0.060063   0.026863
   56  C  4 YY   -0.090718  -0.028467   0.010249   0.063358  -0.008061
   57  C  4 ZZ    0.060811   0.052217  -0.026322  -0.004603   0.020495
   58  C  4 XY   -0.040914  -0.019899  -0.026460   0.084002   0.070768
   59  C  4 XZ    0.014738  -0.006569  -0.006438   0.023460   0.013899
   60  C  4 YZ   -0.057422  -0.024888   0.000345   0.017164  -0.010502
   61  H  5  S    0.139062   0.110156  -0.296579  -0.144894   0.588654
   62  H  5  S    0.093628  -0.057418   2.055829   0.166625  -1.133448
   63  H  6  S    0.187290   0.153321   0.154441  -0.081307  -0.105178
   64  H  6  S    0.061475  -0.011021  -1.417710  -0.415807  -0.198101
   65  H  7  S   -0.501221  -0.156237  -0.000270   0.454456  -0.009514
   66  H  7  S   -0.244122   0.168668  -0.418435  -1.867940  -0.326581
   67  H  8  S   -0.318811  -0.210432  -0.039745  -0.395595  -0.308698
   68  H  8  S   -0.024773  -0.186186  -0.089946   1.699531   0.899474

                     36         37         38         39         40
                    0.8705     0.9078     0.9559     0.9923     1.0341
                     A          A          A          A          A   
    1  C  1  S    0.006395   0.005929  -0.037291  -0.005687  -0.011428
    2  C  1  S    0.651461  -0.479285  -1.284434  -0.311194   0.029705
    3  C  1  X   -0.249345  -0.088816   0.000819  -0.023969   0.218720
    4  C  1  Y   -0.071733   0.115847   0.214696   0.010405   0.132698
    5  C  1  Z    0.053415  -0.030381  -0.006983   0.111928  -0.022181
    6  C  1  S   -1.825068   1.724639   4.126638   1.109617   1.397683
    7  C  1  X   -0.038104   0.671727   0.558374   0.611583  -0.821417
    8  C  1  Y    0.049391  -0.341403  -1.508345   0.154910  -1.789342
    9  C  1  Z   -0.070775  -0.085376  -0.207409  -0.751775  -0.035442
   10  C  1 XX   -0.019173  -0.069951  -0.121492   0.013847  -0.034320
   11  C  1 YY    0.099541   0.057423  -0.058217  -0.032594   0.092589
   12  C  1 ZZ    0.023581  -0.015776  -0.001668  -0.004355  -0.061645
   13  C  1 XY   -0.046378   0.029697  -0.068181   0.009034  -0.059729
   14  C  1 XZ    0.014795  -0.015908   0.066008  -0.013413   0.171627
   15  C  1 YZ    0.015796  -0.003746   0.025757  -0.009289  -0.040879
   16  O  2  S   -0.000235   0.006553   0.002434   0.007949  -0.013280
   17  O  2  S   -0.242048  -0.029635   0.159463   0.077942  -0.013877
   18  O  2  X   -0.108687   0.126377  -0.135218  -0.255851   0.217102
   19  O  2  Y   -0.080552  -0.157262   0.072217   0.012679  -0.311984
   20  O  2  Z   -0.012982   0.237338   0.073691  -0.828620  -0.239803
   21  O  2  S    0.644770  -0.256469  -0.360376  -0.520389   0.738940
   22  O  2  X    0.104429  -0.292435   0.088026   0.213209  -0.057700
   23  O  2  Y    0.113251   0.395092  -0.031458   0.082612   0.415200
   24  O  2  Z    0.028242  -0.255522  -0.038968   1.139739   0.344183
   25  O  2 XX   -0.057394  -0.029417   0.046604   0.021924  -0.007450
   26  O  2 YY   -0.081332  -0.052187   0.010700   0.015435   0.001807
   27  O  2 ZZ   -0.098842   0.028784   0.117306   0.061005  -0.097672
   28  O  2 XY    0.021087  -0.024422   0.028180  -0.000222   0.022589
   29  O  2 XZ   -0.011445   0.005485   0.040284   0.017498   0.024300
   30  O  2 YZ   -0.008661   0.011568   0.003659   0.030932   0.006315
   31  C  3  S   -0.022843  -0.002267   0.025171   0.006189   0.002010
   32  C  3  S    0.689583  -0.051909   0.501207   0.272052  -0.049825
   33  C  3  X   -0.125157  -0.376668  -0.419984  -0.074131  -0.155379
   34  C  3  Y   -0.766762  -0.263256  -0.062794   0.009651  -0.016041
   35  C  3  Z   -0.158773  -0.050841  -0.008826  -0.035076   0.017718
   36  C  3  S   -0.945722   0.174338  -1.282868  -1.048546   0.117262
   37  C  3  X    0.311755   1.649900   2.814811   0.142949   2.376210
   38  C  3  Y    2.081558   0.360952  -0.261164  -0.680563   0.116761
   39  C  3  Z    0.454573   0.007447  -0.238129   0.125072  -0.305632
   40  C  3 XX    0.119072   0.057255   0.068570   0.027735  -0.032371
   41  C  3 YY   -0.058885  -0.071263   0.005499   0.009674   0.001200
   42  C  3 ZZ    0.056466   0.016000  -0.003723  -0.004291   0.051146
   43  C  3 XY   -0.060555   0.042685   0.094223  -0.000363   0.020657
   44  C  3 XZ   -0.032306   0.011786   0.018933   0.054047  -0.077266
   45  C  3 YZ   -0.033201  -0.027427   0.031100  -0.029379   0.124591
   46  C  4  S    0.000104   0.031529   0.003020   0.002603   0.005498
   47  C  4  S    0.257571  -0.419262   1.128281  -0.278631  -0.270354
   48  C  4  X    0.146103  -0.633019  -0.020976  -0.231481   0.225052
   49  C  4  Y    0.024464  -0.194448   0.058813   0.026389  -0.242274
   50  C  4  Z   -0.027368  -0.022169   0.045261   0.031553  -0.021967
   51  C  4  S   -0.935772  -0.013020  -3.519856   1.071411  -1.275197
   52  C  4  X    0.156818   1.601856   0.746367   0.295166   0.010479
   53  C  4  Y   -0.330380   0.488110   0.405170   0.116620   1.538969
   54  C  4  Z   -0.024825   0.057752   0.046289  -0.106589   0.432708
   55  C  4 XX   -0.018497  -0.098151   0.070462  -0.005154  -0.013346
   56  C  4 YY    0.025433   0.108768   0.043513   0.026125  -0.060572
   57  C  4 ZZ    0.019252  -0.078884   0.035447  -0.055842   0.031236
   58  C  4 XY    0.056461  -0.074367  -0.044040  -0.001964  -0.111501
   59  C  4 XZ    0.026260  -0.023831  -0.017700  -0.028495  -0.007407
   60  C  4 YZ   -0.003271   0.069836   0.016759  -0.006886   0.034218
   61  H  5  S   -0.267779   0.180607  -0.141877   0.208233  -0.654471
   62  H  5  S    0.722616  -0.150023  -0.611525   0.077317  -0.418511
   63  H  6  S   -0.580158  -0.220073   0.036917  -0.192309   0.263798
   64  H  6  S    2.120641   0.742860   0.449845   0.017621   0.118842
   65  H  7  S   -0.056270   0.559644  -0.254194   0.093536  -0.198367
   66  H  7  S    0.189901  -1.160229   0.561859  -0.469362  -0.539644
   67  H  8  S   -0.134218   0.550405  -0.072921   0.132313   0.360244
   68  H  8  S    0.212573  -1.131009   0.421700  -0.494383   0.430120

                     41         42         43         44         45
                    1.0970     1.1139     1.2494     1.3776     1.4646
                     A          A          A          A          A   
    1  C  1  S   -0.001678   0.018653   0.017872  -0.017979  -0.009603
    2  C  1  S   -0.149082   0.573230  -0.009888  -0.041135  -0.149979
    3  C  1  X    0.261738   0.184423  -0.225215   0.039121   0.057510
    4  C  1  Y    0.035309  -0.079632  -0.009241  -0.011681   0.043689
    5  C  1  Z   -0.100777  -0.024051   0.064954  -0.011354   0.025728
    6  C  1  S    0.755028  -1.485666  -2.232503  -0.542710   0.805758
    7  C  1  X   -1.269348  -1.390620  -1.268785   0.384567  -0.240371
    8  C  1  Y   -0.040595   0.581126   0.009532  -0.555727  -0.536682
    9  C  1  Z    0.501468   0.266283   0.099370  -0.056321   0.021819
   10  C  1 XX   -0.004425  -0.038976  -0.004920   0.206206  -0.215092
   11  C  1 YY    0.027537   0.056785  -0.022506  -0.070540   0.028941
   12  C  1 ZZ   -0.036245   0.022665   0.012551  -0.139855   0.174583
   13  C  1 XY   -0.137873  -0.048639   0.000340  -0.070037  -0.003044
   14  C  1 XZ    0.038696  -0.030649   0.091401   0.181200  -0.356199
   15  C  1 YZ    0.050419  -0.007912  -0.189589  -0.216342  -0.002922
   16  O  2  S    0.000486   0.005523  -0.007700  -0.035139  -0.003543
   17  O  2  S    0.037420   0.077868  -0.021237  -0.763040   0.088863
   18  O  2  X   -0.618149  -0.420341  -0.190975   0.044352   0.037851
   19  O  2  Y    0.006168  -0.001702  -0.157595   0.247307  -0.051555
   20  O  2  Z    0.231709   0.018579  -0.063128   0.014687  -0.029078
   21  O  2  S   -0.125963  -0.113672   0.480624   1.970396  -0.012591
   22  O  2  X    1.177718   0.842089   0.393273  -0.109474  -0.017047
   23  O  2  Y    0.017970   0.028099   0.042300  -0.788258   0.117746
   24  O  2  Z   -0.444032  -0.083978   0.228115   0.124856   0.053179
   25  O  2 XX    0.009200   0.033150   0.020283  -0.115398  -0.075338
   26  O  2 YY   -0.010150   0.050682   0.008949  -0.246855   0.040878
   27  O  2 ZZ    0.016745  -0.019439  -0.064584  -0.208804   0.052045
   28  O  2 XY    0.107561   0.039695   0.030760   0.024196  -0.018806
   29  O  2 XZ   -0.003469  -0.040842  -0.030556   0.097275  -0.169013
   30  O  2 YZ   -0.040671  -0.004201   0.110352   0.116410   0.030073
   31  C  3  S    0.022111  -0.046971  -0.025537   0.003163   0.004803
   32  C  3  S    0.643316  -1.371283  -0.750021   0.105707   0.117845
   33  C  3  X    0.132792  -0.145485   0.000898  -0.049148  -0.007952
   34  C  3  Y    0.149809   0.067602  -0.303187   0.114663  -0.050918
   35  C  3  Z    0.013286   0.008347  -0.079007   0.082900   0.124949
   36  C  3  S   -1.925194   5.852976   2.921987  -0.390976  -0.451802
   37  C  3  X   -0.928164   1.125274   0.057211  -0.103043   0.632144
   38  C  3  Y   -0.191915   0.082823   3.741127  -1.151317   0.188003
   39  C  3  Z   -0.094470   0.006108   0.931950  -0.319279  -0.043242
   40  C  3 XX    0.007888   0.010998  -0.093018  -0.031352  -0.002505
   41  C  3 YY    0.075008  -0.147170   0.018633   0.020318   0.235845
   42  C  3 ZZ   -0.010810  -0.013396   0.034715   0.013304  -0.226154
   43  C  3 XY   -0.045061  -0.021986   0.091823   0.097090   0.009467
   44  C  3 XZ   -0.041480  -0.008769  -0.108900  -0.460663  -0.155690
   45  C  3 YZ    0.042388  -0.071745   0.041493   0.044696  -0.533135
   46  C  4  S   -0.018209   0.026737   0.013225  -0.007588   0.002088
   47  C  4  S   -0.987217   0.908040   0.312034   0.010061  -0.080490
   48  C  4  X   -0.040346  -0.118178  -0.022941  -0.105646   0.095771
   49  C  4  Y    0.082727  -0.099849   0.075301  -0.017750  -0.059912
   50  C  4  Z    0.011179  -0.046665   0.047234   0.119490   0.059958
   51  C  4  S    3.244933  -3.904818  -2.211489   0.573579  -0.303809
   52  C  4  X   -0.579139   1.137265   1.483253  -0.213383  -0.069024
   53  C  4  Y   -0.240846   1.336982  -2.215953   0.540328   0.232914
   54  C  4  Z    0.014404   0.339420  -0.620181   0.148962   0.058580
   55  C  4 XX   -0.019603   0.001050  -0.107265   0.047214   0.030785
   56  C  4 YY   -0.052657   0.086291   0.097601  -0.073193   0.072483
   57  C  4 ZZ   -0.055241   0.016185   0.045748   0.016450  -0.101305
   58  C  4 XY    0.043602  -0.086543   0.073284  -0.080407  -0.144642
   59  C  4 XZ    0.033894  -0.010045   0.110434   0.343691   0.388993
   60  C  4 YZ    0.006353   0.011269   0.060393   0.167568  -0.200369
   61  H  5  S   -0.210403  -0.040073  -0.168857   0.170189  -0.182925
   62  H  5  S   -0.763804  -0.177449  -0.099160   0.036239  -0.291059
   63  H  6  S    0.121562  -0.323430   0.669952  -0.273291   0.125042
   64  H  6  S    0.031076  -0.560260   1.093744  -0.494086   0.201647
   65  H  7  S    0.104777  -0.058678   0.670463  -0.141871  -0.027337
   66  H  7  S   -0.604272  -0.201754   0.824560  -0.263519  -0.040693
   67  H  8  S    0.072799   0.405762  -0.492643   0.139585   0.025223
   68  H  8  S   -0.540493   0.485054  -0.644713   0.063867   0.138794

                     46         47         48         49         50
                    1.5419     1.5510     1.6573     1.7199     1.8064
                     A          A          A          A          A   
    1  C  1  S   -0.007060  -0.026026  -0.001236   0.009254   0.022561
    2  C  1  S   -0.104509  -0.263941   0.016486   0.385724  -0.076105
    3  C  1  X   -0.083018   0.097839  -0.003929   0.188042   0.017687
    4  C  1  Y   -0.022325  -0.028003  -0.003296  -0.150320   0.081371
    5  C  1  Z   -0.165023   0.043168   0.009483  -0.066269  -0.041806
    6  C  1  S   -0.991632  -1.621722   0.034735  -2.046623  -0.598274
    7  C  1  X   -0.594320  -0.938859  -0.080327  -0.975368   0.527342
    8  C  1  Y   -0.989590  -2.977322  -0.002506  -1.008203   0.172363
    9  C  1  Z    0.300130   0.345579  -0.192822   0.286664  -0.248250
   10  C  1 XX    0.222919   0.076429  -0.160240  -0.248300  -0.107016
   11  C  1 YY    0.014590  -0.182290   0.032038  -0.077104   0.016105
   12  C  1 ZZ   -0.246881   0.076480   0.130491   0.391728   0.062457
   13  C  1 XY    0.190063  -0.150934   0.052323   0.125611  -0.402321
   14  C  1 XZ    0.176792  -0.302384  -0.230863   0.193219   0.105023
   15  C  1 YZ    0.503888  -0.018837   0.153067   0.067437   0.189408
   16  O  2  S   -0.032931  -0.093460   0.002782  -0.037189   0.001819
   17  O  2  S   -0.490223  -1.454836   0.015079  -0.726030   0.093058
   18  O  2  X   -0.055953   0.051011  -0.034043  -0.076725   0.218962
   19  O  2  Y    0.009814   0.104802   0.004236   0.074296  -0.071902
   20  O  2  Z   -0.127137  -0.025213  -0.057660  -0.010261  -0.091360
   21  O  2  S    1.811286   5.124786  -0.069669   2.513536  -0.174264
   22  O  2  X    0.046009   0.006199   0.040787   0.182877  -0.362397
   23  O  2  Y   -0.510792  -1.503787   0.026273  -0.805555   0.093385
   24  O  2  Z   -0.017711   0.187192   0.080833   0.043588   0.147785
   25  O  2 XX    0.038887  -0.182062  -0.150443  -0.495164  -0.259603
   26  O  2 YY   -0.219321  -0.498026   0.000543  -0.241810  -0.061119
   27  O  2 ZZ   -0.185048  -0.380200   0.169842   0.303264   0.378209
   28  O  2 XY   -0.145381   0.091416  -0.076228  -0.024994   0.480049
   29  O  2 XZ    0.026934  -0.246279  -0.252508   0.251095   0.030099
   30  O  2 YZ   -0.449575   0.092050  -0.066122  -0.002169  -0.184434
   31  C  3  S   -0.017501  -0.006082  -0.001107  -0.008525   0.010677
   32  C  3  S   -0.375608  -0.238996   0.017623   0.082787  -0.386278
   33  C  3  X   -0.045553  -0.085539  -0.005179  -0.141051   0.230016
   34  C  3  Y   -0.091012  -0.049435  -0.005134   0.082622  -0.181744
   35  C  3  Z    0.048048  -0.025267   0.025482   0.032307  -0.048071
   36  C  3  S    1.512757   0.888261   0.032492   0.714755   0.354729
   37  C  3  X    0.822837   1.688052   0.230190   0.650753  -0.340806
   38  C  3  Y    1.165606   1.008732   0.150646   0.935180   0.615293
   39  C  3  Z    0.120188  -0.136700   0.218351   0.078501   0.278546
   40  C  3 XX    0.013801  -0.015389   0.013736  -0.104563   0.052943
   41  C  3 YY    0.112766   0.114306  -0.040738  -0.151003  -0.034559
   42  C  3 ZZ   -0.128902  -0.096547   0.028350   0.348557   0.018788
   43  C  3 XY    0.040136  -0.132308   0.050163   0.180465  -0.288350
   44  C  3 XZ   -0.019818   0.192253  -0.112245   0.106442  -0.116693
   45  C  3 YZ   -0.087058   0.053549  -0.030867  -0.138299   0.060131
   46  C  4  S    0.005812   0.000692   0.003143   0.014403   0.006498
   47  C  4  S    0.149444   0.056356  -0.022298   0.001371   0.098393
   48  C  4  X    0.017553   0.020910   0.053703   0.094205  -0.032653
   49  C  4  Y    0.046133   0.023201  -0.013719  -0.089784   0.063582
   50  C  4  Z    0.036294  -0.084991   0.022287  -0.041597   0.042049
   51  C  4  S   -1.443906  -1.631300  -0.232065  -1.024674  -0.284241
   52  C  4  X    0.768189   0.585462   0.032030   0.089897   0.179733
   53  C  4  Y   -0.347313   0.311231   0.007164  -0.026463  -0.258899
   54  C  4  Z   -0.109973   0.211189  -0.072933   0.034182  -0.140495
   55  C  4 XX   -0.009068  -0.060796   0.002376  -0.015511  -0.121416
   56  C  4 YY    0.060089   0.080385  -0.392181  -0.161631   0.179509
   57  C  4 ZZ   -0.075208  -0.024082   0.388082   0.200816  -0.004351
   58  C  4 XY   -0.024828   0.051799   0.040772  -0.072219   0.028623
   59  C  4 XZ    0.148005  -0.211407  -0.074435   0.006208   0.110064
   60  C  4 YZ    0.002158  -0.042558   0.727048  -0.238473   0.031521
   61  H  5  S   -0.157251  -0.268794  -0.021056   0.041693   0.564404
   62  H  5  S   -0.268589  -0.669987   0.018929  -0.233766   0.167847
   63  H  6  S    0.129241   0.179995   0.081929   0.200937   0.187793
   64  H  6  S    0.307562   0.317107   0.105371   0.397430   0.180007
   65  H  7  S    0.131577  -0.004689   0.027463   0.282095  -0.147757
   66  H  7  S    0.196620  -0.039853   0.026465   0.081996   0.234178
   67  H  8  S   -0.039287   0.114995  -0.006968   0.049538   0.011449
   68  H  8  S   -0.218687   0.038846   0.023932   0.153302  -0.062020

                     51         52         53         54         55
                    1.8384     1.9296     1.9889     2.0351     2.1466
                     A          A          A          A          A   
    1  C  1  S    0.004982   0.003282  -0.017490  -0.004024   0.026830
    2  C  1  S   -0.050706   0.197765   0.179055   0.051072   0.182764
    3  C  1  X    0.031284   0.059912   0.220736  -0.147594   0.001466
    4  C  1  Y   -0.016381  -0.128921   0.010171   0.179924  -0.014674
    5  C  1  Z    0.054885  -0.001975  -0.030391   0.056445  -0.034594
    6  C  1  S   -0.096232  -0.957304  -0.422996  -1.267186  -0.839445
    7  C  1  X   -0.002446  -0.681111   0.048182  -1.377609  -0.390922
    8  C  1  Y   -0.338559   0.009577   0.018448  -0.478592   0.172540
    9  C  1  Z    0.109536   0.309103  -0.119452   0.326382  -0.067496
   10  C  1 XX   -0.021233   0.178713  -0.431693  -0.121429  -0.348207
   11  C  1 YY   -0.081324  -0.146221   0.315797   0.245347  -0.143847
   12  C  1 ZZ    0.117739  -0.088991   0.073601  -0.238923   0.532022
   13  C  1 XY   -0.079665   0.101411  -0.127583   0.148831   0.048453
   14  C  1 XZ   -0.068282  -0.046923   0.025298  -0.197877  -0.184339
   15  C  1 YZ   -0.034035  -0.044982   0.065283  -0.054636   0.081400
   16  O  2  S   -0.007025  -0.015253   0.001515  -0.012465  -0.002274
   17  O  2  S   -0.042811  -0.017744  -0.230941  -0.352495  -0.023689
   18  O  2  X    0.035548  -0.035959   0.090765  -0.060452  -0.051904
   19  O  2  Y   -0.069211  -0.097417   0.207765   0.209059  -0.059189
   20  O  2  Z    0.018080   0.037147  -0.051942  -0.011939  -0.009415
   21  O  2  S    0.360610   0.442087   0.300031   1.071145   0.210753
   22  O  2  X   -0.058831   0.133421  -0.142559   0.282637   0.148266
   23  O  2  Y   -0.060160  -0.115155  -0.150283  -0.378913  -0.081873
   24  O  2  Z   -0.014685  -0.077245   0.077384  -0.018701   0.056528
   25  O  2 XX    0.341254  -0.321480   0.182433  -0.453984   0.273844
   26  O  2 YY   -0.033698  -0.000152  -0.062775   0.001973  -0.037166
   27  O  2 ZZ   -0.328991   0.258184  -0.255483   0.222051  -0.214650
   28  O  2 XY    0.165819   0.161013   0.245418  -0.286217  -0.149777
[...]

          ATOMIC WEIGHTS (AMU)

    1     C                12.00000
    2     O                15.99491
    3     C                12.00000
    4     C                12.00000
    5     H                 1.00782
    6     H                 1.00782
    7     H                 1.00782
    8     H                 1.00782

 MODES    1 TO    6 ARE TAKEN AS ROTATIONS AND TRANSLATIONS.

 ANALYZING SYMMETRY OF NORMAL MODES...

     FREQUENCIES IN CM**-1, IR INTENSITIES IN DEBYE**2/AMU-ANGSTROM**2,
     REDUCED MASSES IN AMU.

                            1           2           3           4           5
       FREQUENCY:         3.94        3.58        0.09        0.01        0.16  
        SYMMETRY:         A           A           A           A           A   
    REDUCED MASS:      4.13654     4.34453     6.97747     7.00454     6.84764
    IR INTENSITY:      0.03932     0.05545     0.00001     0.00000     0.00014

  1   C            X -0.00197504  0.01423764  0.01030202  0.03338526  0.12858004
                   Y  0.06450503  0.05867282  0.06374568  0.11242172 -0.03788300
                   Z -0.07718868  0.06944312  0.11855179 -0.06408871  0.00642324
  2   O            X  0.06927422  0.10966028  0.01047390  0.03340855  0.12331163
                   Y  0.05774238  0.04627853  0.06410005  0.11241437 -0.03733756
                   Z -0.09019489  0.07681211  0.11576964 -0.06406271  0.00704100
  3   C            X -0.04879591 -0.07081306  0.00995378  0.03337182  0.13290980
                   Y -0.01968815 -0.01442120  0.06334702  0.11239671 -0.03306884
                   Z  0.03842707 -0.03198019  0.11853082 -0.06403591  0.00730025
  4   C            X -0.01455421 -0.04699381  0.00980649  0.03338712  0.13123178
                   Y -0.11150502 -0.10149873  0.06335324  0.11235915 -0.02763352
                   Z  0.14005352 -0.12363943  0.11538153 -0.06395442  0.00880903
  5   H            X -0.03684685 -0.01495730  0.01040186  0.03337071  0.13048214
                   Y  0.13725419  0.12847549  0.06370595  0.11245075 -0.04221114
                   Z -0.15457393  0.14145944  0.12135771 -0.06415279  0.00511202
  6   H            X -0.11214869 -0.15322065  0.00982826  0.03335430  0.13750163
                   Y -0.00323307  0.00629485  0.06305191  0.11240601 -0.03416918
                   Z  0.03689804 -0.02833331  0.12119225 -0.06406459  0.00665508
  7   H            X  0.04881072  0.03579944  0.00993717  0.03341537  0.12661972
                   Y -0.12586700 -0.12027133  0.06365361  0.11235064 -0.02665627
                   Z  0.13919845 -0.12478469  0.11276380 -0.06392463  0.00941227
  8   H            X -0.04811486 -0.10830981  0.00955475  0.03337773  0.13434682
                   Y -0.17365071 -0.15537549  0.06306630  0.11233525 -0.02408272
                   Z  0.22525917 -0.19836179  0.11532586 -0.06391368  0.00946127

 TRANS. SAYVETZ    X  0.17467285  0.26860394  0.56830940  1.87066001  7.21810725
                   Y -0.04346505 -0.08872326  3.56608704  6.29724893 -1.90834913
                   Z  0.02155662 -0.01717896  6.55561704 -3.58768517  0.41389077
               TOTAL  0.18128569  0.28339903  7.48438823  7.48506498  7.47757810

   ROT. SAYVETZ    X -7.58349612  4.15364224 -0.08443359 -0.00237069  0.05128204
                   Y -9.69808147 10.77438145  0.09407680 -0.00553526 -0.17560090
                   Z-12.53453830-14.27330782 -0.04875828 -0.00409855  0.83902955
               TOTAL 17.56920169 18.35939420  0.13548744  0.00728405  0.85874100

                            6           7           8           9          10
       FREQUENCY:         7.42      187.01      288.91      562.38      685.72  
        SYMMETRY:         A           A           A           A           A   
    REDUCED MASS:      2.98801     1.84136     3.59072     1.25416     2.78727
    IR INTENSITY:      0.12881     0.16440     0.16413     0.14971     0.25440

  1   C            X -0.00853736  0.01142522 -0.01093781 -0.00063899 -0.11354561
                   Y  0.00910241 -0.01772399 -0.03373255  0.00184999 -0.05029079
                   Z -0.08527118  0.12055081 -0.00336105 -0.01121014  0.00317828
  2   O            X  0.00676502 -0.00875417  0.14272066  0.00228271  0.07591080
                   Y -0.02350029  0.01187959 -0.04857551 -0.00381328 -0.08504018
                   Z  0.14293273 -0.08130051 -0.02075632  0.02851357 -0.01947092
  3   C            X -0.00864380 -0.01002487 -0.04688345 -0.01156842 -0.02444824
                   Y  0.02260754  0.01695266 -0.05999883  0.01787770  0.14689560
                   Z -0.13828968 -0.11210329 -0.00536451 -0.12465962  0.02344124
  4   C            X  0.00850093  0.00641686 -0.10580070  0.00228953  0.02418459
                   Y -0.00141906 -0.00932484  0.12154793 -0.00384176  0.03312566
                   Z  0.06639499  0.06174269  0.02828393  0.02428767  0.00245739
  5   H            X -0.02389618  0.04821740 -0.05695666  0.03035653 -0.13107107
                   Y  0.03114744 -0.07485057  0.07653151 -0.04611049 -0.00959026
                   Z -0.27287649  0.50522545  0.01932226  0.31479058  0.01199054
  6   H            X -0.02346877 -0.03108927  0.03000108  0.03231937  0.10749539
                   Y  0.05264486  0.04978346 -0.07597312 -0.05154996  0.11331535
                   Z -0.35125500 -0.33488184 -0.01616265  0.34746265  0.00902444
  7   H            X  0.02346564  0.03416609 -0.31246645 -0.03880585  0.38813604
                   Y -0.03135635 -0.05116000  0.16495905  0.05898082 -0.04854426
                   Z  0.27701302  0.34376432  0.05504185 -0.39998056 -0.04383614
  8   H            X  0.00837594 -0.00548740  0.02254210  0.05800201 -0.21419809
                   Y  0.00777476  0.00786844  0.27424528 -0.08995676 -0.25029489
                   Z  0.03029258 -0.05963055  0.03834743  0.61382834 -0.01437136

 TRANS. SAYVETZ    X -0.01160182 -0.00005038 -0.00001893  0.00000986  0.00001408
                   Y  0.04828748 -0.00003464  0.00004144 -0.00000494 -0.00008539
                   Z  0.08090059 -0.00007812  0.00000940  0.00004346  0.00000384
               TOTAL  0.09492728  0.00009920  0.00004651  0.00004484  0.00008662

   ROT. SAYVETZ    X  9.37714022  0.03371402  0.01045805 -0.00133845 -0.00210135
                   Y -2.09839426 -0.01390971 -0.00981213  0.00525930  0.00222912
                   Z -0.21415121  0.04799400  0.01258394 -0.00317891 -0.00449266
               TOTAL  9.61144516  0.06027885  0.01907889  0.00628945  0.00543770

                           11          12          13          14          15
       FREQUENCY:       940.84     1001.96     1031.32     1039.24     1077.85  
        SYMMETRY:         A           A           A           A           A   
    REDUCED MASS:      3.16844     1.35971     1.15636     1.60442     1.47000
    IR INTENSITY:      1.43278     0.33543     0.41203     0.31452     0.12181

  1   C            X  0.19224509  0.00192871 -0.00835294 -0.01396756  0.02639420
                   Y -0.04480232 -0.00329944  0.01376524  0.02139668  0.01198014
                   Z -0.02470576  0.02340669 -0.09205700 -0.14706912 -0.00002234
  2   O            X -0.01916215 -0.00061814  0.00182824  0.00333824 -0.01998136
                   Y -0.03125487  0.00110271 -0.00252912 -0.00528578  0.04571757
                   Z -0.00275986 -0.00658538  0.02324738  0.03435977  0.00839974
  3   C            X -0.05898075  0.00593831 -0.00057069  0.00908532  0.02207741
                   Y  0.08225203 -0.00957512 -0.00069934 -0.01378016 -0.11535451
                   Z  0.01777072  0.06193934 -0.00947779  0.09793319 -0.01847059
  4   C            X -0.09660472 -0.01263812 -0.00513206  0.00070967 -0.06088107
                   Y  0.02400380  0.02007487  0.00774556 -0.00090487  0.07813097
                   Z  0.01221977 -0.13562241 -0.04499976  0.00425696  0.01805330
  5   H            X  0.26280745 -0.00875177  0.02973428  0.05731670 -0.01152960
                   Y -0.20908772  0.01329251 -0.04449040 -0.08886627  0.10813861
                   Z -0.05563680 -0.08753771  0.31649777  0.60417120  0.01499322
  6   H            X -0.20104913 -0.02518250  0.06175334 -0.04163028  0.45782229
                   Y  0.12511286  0.03975800 -0.08929556  0.06257396 -0.21858332
                   Z  0.03797573 -0.27383431  0.57992960 -0.41628487 -0.08548442
  7   H            X  0.04811651  0.03686237  0.06311996 -0.01866673  0.38914753
                   Y -0.01206456 -0.05714586 -0.09041537  0.02709496 -0.02498713
                   Z -0.00468233  0.38789149  0.61020414 -0.18274850 -0.05073840
  8   H            X -0.24219658  0.06369404 -0.01626543 -0.00031498 -0.37057767
                   Y -0.13970833 -0.09913954  0.01652990  0.00317455 -0.28957213
                   Z  0.00322338  0.67663805 -0.13080012 -0.01607493 -0.00684689

 TRANS. SAYVETZ    X  0.00006150  0.00000327 -0.00000101  0.00000287 -0.00001358
                   Y -0.00006925 -0.00000115 -0.00001207  0.00000252 -0.00000204
                   Z  0.00000338  0.00001049  0.00002228  0.00001109 -0.00000112
               TOTAL  0.00009268  0.00001104  0.00002536  0.00001172  0.00001378

   ROT. SAYVETZ    X -0.00115081 -0.00020286  0.00097363  0.00122476 -0.00036198
                   Y  0.00078552 -0.00170325  0.00014026 -0.00050147  0.00018217
                   Z -0.00076510  0.00113952  0.00190534  0.00049624  0.00020307
               TOTAL  0.00158958  0.00205930  0.00214428  0.00141342  0.00045327

                           16          17          18          19          20
       FREQUENCY:      1325.97     1445.61     1453.50     1686.57     1806.47  
        SYMMETRY:         A           A           A           A           A   
    REDUCED MASS:      1.32249     1.16238     1.29645     4.70309     7.62519
    IR INTENSITY:      0.06010     0.05225     0.95795     1.66416     2.28562

  1   C            X  0.00438626  0.04862677  0.07293741 -0.02395821  0.01715745
                   Y -0.00247909 -0.00727155 -0.01304340  0.07153641  0.21118705
                   Z -0.00080387 -0.00571297 -0.00876460  0.01270876  0.02925190
  2   O            X  0.00571064 -0.03480619 -0.02673112 -0.00167719 -0.01617582
                   Y  0.01266065 -0.05249296 -0.03300353 -0.04867583 -0.13829098
                   Z  0.00130797 -0.00437250 -0.00229575 -0.00694489 -0.01868033
  3   C            X  0.01473573  0.05713995 -0.10014247  0.18081797 -0.05554070
                   Y  0.09680021  0.02476035  0.02972514  0.02080293 -0.02678121
                   Z  0.01298044 -0.00175257  0.01378744 -0.01386398  0.00127524
  4   C            X -0.05424863  0.01785589 -0.01400313 -0.16405325  0.04662157
                   Y -0.09263208  0.00309311 -0.03020642 -0.04489753  0.01766538
                   Z -0.00864050 -0.00130450 -0.00304205  0.00875704 -0.00176607
  5   H            X  0.06541062 -0.24679013 -0.10645775 -0.01230491  0.13644288
                   Y -0.11896455  0.70973466  0.43925370  0.02175625 -0.10893956
                   Z -0.02333453  0.12719126  0.07414026  0.00431481 -0.02884554
  6   H            X  0.71420132 -0.09489823  0.25924375 -0.11923847  0.09912113
                   Y -0.06096633  0.06888820 -0.05167184  0.11149006 -0.07451141
                   Z -0.07639064  0.01957061 -0.03267654  0.02771222 -0.02032198
  7   H            X -0.43974475 -0.35090224  0.38920313  0.20836396 -0.05377671
                   Y -0.01566138  0.07723232 -0.10907835 -0.14176910  0.05013244
                   Z  0.03923856  0.04522680 -0.05363616 -0.04080427  0.01251698
  8   H            X -0.01224066 -0.22696350  0.37293550  0.03547944 -0.02319427
                   Y -0.02547652 -0.26782973  0.40627620  0.21614419 -0.07793302
                   Z -0.00237311 -0.01816912  0.02502968  0.02848467 -0.00932901

 TRANS. SAYVETZ    X  0.00001162 -0.00000024  0.00002375  0.00003036 -0.00003681
                   Y -0.00002412 -0.00001052 -0.00004649 -0.00001766 -0.00000168
                   Z  0.00000205  0.00000133  0.00000709  0.00000059  0.00000333
               TOTAL  0.00002685  0.00001060  0.00005268  0.00003513  0.00003699

   ROT. SAYVETZ    X  0.00113536  0.00078730 -0.00030469 -0.00075420  0.00025082
                   Y -0.00113364 -0.00103645  0.00025418  0.00075950 -0.00006959
                   Z  0.00246363  0.00207782  0.00032146 -0.00147740 -0.00001854
               TOTAL  0.00294001  0.00245181  0.00051066  0.00182438  0.00026095

                           21          22          23          24
       FREQUENCY:      2923.61     3168.54     3182.20     3260.59  
        SYMMETRY:         A           A           A           A   
    REDUCED MASS:      1.08441     1.06033     1.09040     1.11775
    IR INTENSITY:      3.67134     0.18542     0.26737     0.08492

  1   C            X -0.07506101 -0.00229107 -0.00469490 -0.00046365
                   Y -0.02770852 -0.00107974  0.00082549 -0.00021134
                   Z  0.00305449  0.00006036  0.00056456  0.00001363
  2   O            X  0.00045361  0.00033087 -0.00003585  0.00014624
                   Y -0.00176046  0.00047574 -0.00027589  0.00028013
                   Z -0.00030025  0.00003852 -0.00003849  0.00002784
  3   C            X  0.00213767 -0.00602191 -0.02303675 -0.00298017
                   Y  0.00207098 -0.03913459 -0.06870607 -0.00864043
                   Z  0.00010490 -0.00519545 -0.00796080 -0.00099245
  4   C            X -0.00032479 -0.05189868  0.03352915  0.03154174
                   Y  0.00002916 -0.01420443  0.02067659 -0.08727505
                   Z  0.00003412  0.00276233 -0.00008884 -0.01580395
  5   H            X  0.88190487  0.01569527  0.03783341 -0.00018539
                   Y  0.36744976  0.00498242  0.00932343 -0.00092507
                   Z -0.02976720 -0.00076414 -0.00220695 -0.00012388
  6   H            X -0.02070864  0.12023710  0.19746916  0.02503898
                   Y -0.03954809  0.47637320  0.77798636  0.09007473
                   Z -0.00388620  0.05885225  0.09604732  0.01091225
  7   H            X  0.00467774  0.12175591 -0.08959282  0.15233191
                   Y  0.00650384  0.55121140 -0.40377868  0.62234847
                   Z  0.00053033  0.06976135 -0.05107194  0.07740022
  8   H            X -0.00092096  0.45398823 -0.21416977 -0.51406074
                   Y -0.00155255 -0.39218099  0.18289880  0.42861843
                   Z -0.00013632 -0.10020580  0.04696611  0.11119948

 TRANS. SAYVETZ    X -0.00000086 -0.00000235  0.00000081  0.00000282
                   Y -0.00000136 -0.00001874  0.00000150 -0.00000320
                   Z  0.00000003  0.00000283  0.00000021  0.00000046
               TOTAL  0.00000161  0.00001910  0.00000172  0.00000429

   ROT. SAYVETZ    X  0.00001577 -0.00008856  0.00019296 -0.00013366
                   Y  0.00000976  0.00005726 -0.00014642  0.00015083
                   Z  0.00000030 -0.00009387  0.00019990 -0.00030889
               TOTAL  0.00001855  0.00014119  0.00031406  0.00036882

 REFERENCE ON SAYVETZ CONDITIONS - A. SAYVETZ, J.CHEM.PHYS., 7, 383-389(1939).

 NOTE - THE MODES J,K ARE ORTHONORMALIZED ACCORDING TO
 SUM ON I   M(I) * (X(I,J)*X(I,K) + Y(I,J)*Y(I,K) + Z(I,J)*Z(I,K)) = DELTA(J,K)

  MODE FREQ(CM**-1)  SYMMETRY  RED. MASS  IR INTENS.
     1       3.937    A        4.136541    0.039319
     2       3.584    A        4.344531    0.055454
     3       0.091    A        6.977470    0.000015
     4       0.015    A        7.004539    0.000000
     5       0.163    A        6.847638    0.000136
     6       7.416    A        2.988013    0.128812
     7     187.013    A        1.841358    0.164397
     8     288.915    A        3.590716    0.164133
     9     562.381    A        1.254155    0.149707
    10     685.716    A        2.787269    0.254402
    11     940.838    A        3.168437    1.432778
    12    1001.957    A        1.359708    0.335433
    13    1031.319    A        1.156363    0.412034
    14    1039.240    A        1.604416    0.314518
    15    1077.847    A        1.469999    0.121805
    16    1325.974    A        1.322487    0.060101
    17    1445.613    A        1.162377    0.052255
    18    1453.503    A        1.296451    0.957949
    19    1686.565    A        4.703092    1.664164
    20    1806.467    A        7.625187    2.285615
    21    2923.608    A        1.084409    3.671336
    22    3168.543    A        1.060327    0.185425
    23    3182.203    A        1.090401    0.267368
    24    3260.589    A        1.117746    0.084920

     -------------------------------
     THERMOCHEMISTRY AT T=  298.15 K
     -------------------------------

 USING IDEAL GAS, RIGID ROTOR, HARMONIC NORMAL MODE APPROXIMATIONS.
 P=  1.01325E+05 PASCAL.
 ALL FREQUENCIES ARE SCALED BY   1.00000
 THE MOMENTS OF INERTIA ARE (IN AMU*BOHR**2)
             79.10325           290.33880           369.44198
 THE ROTATIONAL SYMMETRY NUMBER IS  1.0
 THE ROTATIONAL CONSTANTS ARE (IN GHZ)
     22.79411     6.21029     4.88057
      7 -     24 VIBRATIONAL MODES ARE USED IN THERMOCHEMISTRY.
 THE HARMONIC ZERO POINT ENERGY IS (SCALED BY   1.000)
        0.061666 HARTREE/MOLECULE    13534.145782 CM**-1/MOLECULE 
       38.696103 KCAL/MOL              161.904497 KJ/MOL

               Q               LN Q
 ELEC.     1.00000E+00       0.000000
 TRANS.    1.64832E+07      16.617850
 ROT.      3.29734E+04      10.403458
 VIB.      2.59290E+00       0.952778
 TOT.      1.40926E+12      27.974086

              E         H         G         CV        CP        S
           KJ/MOL    KJ/MOL    KJ/MOL   J/MOL-K   J/MOL-K   J/MOL-K
 ELEC.      0.000     0.000     0.000     0.000     0.000     0.000
 TRANS.     3.718     6.197   -41.195    12.472    20.786   158.954
 ROT.       3.718     3.718   -25.790    12.472    12.472    98.970
 VIB.     165.885   165.885   159.543    32.221    32.221    21.272
 TOTAL    173.322   175.801    92.558    57.164    65.479   279.196
 VIB. THERMAL CORRECTION E(T)-E(0) = H(T)-H(0) =      3980.347 J/MOL

              E         H         G         CV        CP        S
         KCAL/MOL  KCAL/MOL  KCAL/MOL CAL/MOL-K CAL/MOL-K CAL/MOL-K
 ELEC.      0.000     0.000     0.000     0.000     0.000     0.000
 TRANS.     0.889     1.481    -9.846     2.981     4.968    37.991
 ROT.       0.889     0.889    -6.164     2.981     2.981    23.654
 VIB.      39.647    39.647    38.132     7.701     7.701     5.084
 TOTAL     41.425    42.017    22.122    13.663    15.650    66.729
 VIB. THERMAL CORRECTION E(T)-E(0) = H(T)-H(0) =       951.326 CAL/MOL
 ......END OF NORMAL COORDINATE ANALYSIS......
 STEP CPU TIME =     0.00 TOTAL CPU TIME =        790.2 (     13.2 MIN)
 TOTAL WALL CLOCK TIME=        823.8 SECONDS, CPU UTILIZATION IS    95.92%
               1080583  WORDS OF DYNAMIC MEMORY USED
 EXECUTION OF GAMESS TERMINATED NORMALLY Tue Oct  4 21:30:30 2022
 DDI: 263640 bytes (0.3 MB / 0 MWords) used by master data server.

 ----------------------------------------
 CPU timing information for all processes
 ========================================
 0: 785.629 + 4.533 = 790.163
 ----------------------------------------
 ddikick.x: exited gracefully.
----- accounting info -----
Files used on the master node chemcompute-node-0.novalocal were:
-rw-r--r--. 1 chemcomp chemcomp     1025 Oct  4 21:16 /scratch/120801/460758.F05
-rw-rw-r--. 1 chemcomp chemcomp 65536000 Oct  4 21:30 /scratch/120801/460758.F10
-rw-rw-r--. 1 chemcomp chemcomp  4143136 Oct  4 21:30 /scratch/120801/460758.F22
Tue Oct  4 21:30:33 UTC 2022
0.101u 0.038s 13:47.18 0.0%	0+0k 8+208io 0pf+0w
Finishing Up...
Looking for IR data...
Looking for Raman data...
vibramans not found
Looking for thermodynamics data...
Looking for UV-Vis data...
chemcompute.org
{'UTCtimestamp': '2022-10-04T21:30:35.525890', 'cluster': 'jetstream2', 'clusterJobNumber': '120801', 'status': 'COMPLETE', 'nodeList': 'chemcompute-node-0'}
120801
